<?xml version="1.0" encoding="UTF-8"?>

<!-- generated on Tue 06 Apr 2021 02:20:17 IST by Eclipse SUMO GUI Version 1.7.0
<configuration xmlns:xsi="http://www.w3.org/2001/XMLSchema-instance" xsi:noNamespaceSchemaLocation="http://sumo.dlr.de/xsd/sumoConfiguration.xsd">

    <input>
        <net-file value="./sumocfg/net.xml"/>
        <additional-files value="./sumocfg/add.xml,./sumocfg/rou.xml,./sumocfg/emi.xml,./sumocfg/poi.xml,./sumocfg/outputs.add.xml"/>
    </input>

    <output>
        <tripinfo-output value="/home/mgarg/simulation/sumo_simulation/mpr_0.2/results/tripinfo.out.xml"/>
    </output>

    <time>
        <begin value="23400"/>
        <end value="30600"/>
        <step-length value="0.5"/>
    </time>

    <processing>
        <collision.mingap-factor value="0"/>
        <emergencydecel.warning-threshold value="5"/>
    </processing>

    <ssm_device>
        <device.ssm.probability value="1"/>
        <device.ssm.deterministic value="true"/>
        <device.ssm.measures value="TTC PET"/>
        <device.ssm.thresholds value="1.5 2"/>
        <device.ssm.trajectories value="false"/>
        <device.ssm.range value="20"/>
        <device.ssm.extratime value="0.5"/>
        <device.ssm.file value="/home/mgarg/simulation/sumo_simulation/mpr_0.2/results/ssm.out.xml"/>
        <device.ssm.geo value="true"/>
    </ssm_device>

    <traci_server>
        <remote-port value="40249"/>
    </traci_server>

    <random_number>
        <seed value="0"/>
    </random_number>

    <gui_only>
        <tracker-interval value="0.5"/>
    </gui_only>

</configuration>
-->

<meandata xmlns:xsi="http://www.w3.org/2001/XMLSchema-instance" xsi:noNamespaceSchemaLocation="http://sumo.dlr.de/xsd/meandata_file.xsd">
    <interval begin="0.00" end="23400.50" id="1"/>
    <interval begin="23400.50" end="25200.50" id="1"/>
