<?xml version="1.0" encoding="UTF-8"?>

<!-- generated on Tue 06 Apr 2021 02:19:32 IST by Eclipse SUMO GUI Version 1.7.0
<configuration xmlns:xsi="http://www.w3.org/2001/XMLSchema-instance" xsi:noNamespaceSchemaLocation="http://sumo.dlr.de/xsd/sumoConfiguration.xsd">

    <input>
        <net-file value="./sumocfg/net.xml"/>
        <additional-files value="./sumocfg/add.xml,./sumocfg/rou.xml,./sumocfg/emi.xml,./sumocfg/poi.xml,./sumocfg/outputs.add.xml"/>
    </input>

    <output>
        <tripinfo-output value="/home/mgarg/simulation/sumo_simulation/mpr_0.2/results/tripinfo.out.xml"/>
    </output>

    <time>
        <begin value="23400"/>
        <end value="30600"/>
        <step-length value="0.5"/>
    </time>

    <processing>
        <collision.mingap-factor value="0"/>
        <emergencydecel.warning-threshold value="5"/>
    </processing>

    <ssm_device>
        <device.ssm.probability value="1"/>
        <device.ssm.deterministic value="true"/>
        <device.ssm.measures value="TTC PET"/>
        <device.ssm.thresholds value="1.5 2"/>
        <device.ssm.trajectories value="false"/>
        <device.ssm.range value="20"/>
        <device.ssm.extratime value="0.5"/>
        <device.ssm.file value="/home/mgarg/simulation/sumo_simulation/mpr_0.2/results/ssm.out.xml"/>
        <device.ssm.geo value="true"/>
    </ssm_device>

    <traci_server>
        <remote-port value="40249"/>
    </traci_server>

    <random_number>
        <seed value="0"/>
    </random_number>

    <gui_only>
        <tracker-interval value="0.5"/>
    </gui_only>

</configuration>
-->

<tripinfos xmlns:xsi="http://www.w3.org/2001/XMLSchema-instance" xsi:noNamespaceSchemaLocation="http://sumo.dlr.de/xsd/tripinfo_file.xsd">
    <tripinfo id="NRA_000000001070_Eastbound-4.649" depart="23403.50" departLane="293596618#1-AddedOffRampEdge_2" departPos="459.36" departSpeed="27.07" departDelay="0.47" arrival="23487.50" arrivalLane="615002705#1_0" arrivalPos="622.13" arrivalSpeed="20.31" duration="84.00" routeLength="1715.43" waitingTime="0.00" waitingCount="0" stopTime="0.00" timeLoss="1.27" rerouteNo="0" devices="tripinfo_NRA_000000001070_Eastbound-4.649 ssm_NRA_000000001070_Eastbound-4.649" vType="HDC" speedFactor="1.22" vaporized=""/>
    <tripinfo id="N7-W2.1264" depart="23406.00" departLane="457424511#3_0" departPos="256.11" departSpeed="14.17" departDelay="0.12" arrival="23508.50" arrivalLane="345616204#1.655_1" arrivalPos="379.47" arrivalSpeed="33.55" duration="102.50" routeLength="2196.96" waitingTime="0.00" waitingCount="0" stopTime="0.00" timeLoss="15.68" rerouteNo="0" devices="tripinfo_N7-W2.1264 ssm_N7-W2.1264" vType="HDC" speedFactor="1.21" vaporized=""/>
    <tripinfo id="NRA_000000001070_Eastbound-3.1438" depart="23407.00" departLane="293596618#1-AddedOffRampEdge_2" departPos="297.64" departSpeed="23.72" departDelay="0.38" arrival="23509.50" arrivalLane="615002705#1_0" arrivalPos="622.13" arrivalSpeed="17.80" duration="102.50" routeLength="1877.15" waitingTime="0.00" waitingCount="0" stopTime="0.00" timeLoss="1.18" rerouteNo="0" devices="tripinfo_NRA_000000001070_Eastbound-3.1438 ssm_NRA_000000001070_Eastbound-3.1438" vType="HDC" speedFactor="1.07" vaporized=""/>
    <tripinfo id="N7-W3.1205" depart="23400.00" departLane="457424511#3_0" departPos="332.11" departSpeed="15.35" departDelay="0.00" arrival="23510.50" arrivalLane="345616204#1.655_0" arrivalPos="379.47" arrivalSpeed="25.58" duration="110.50" routeLength="2120.96" waitingTime="0.00" waitingCount="0" stopTime="0.00" timeLoss="1.98" rerouteNo="0" devices="tripinfo_N7-W3.1205 ssm_N7-W3.1205" vType="HDC" speedFactor="0.92" vaporized=""/>
    <tripinfo id="NRA_000000001509_Northbound-off-slip-2.281" depart="23400.00" departLane="75259388-AddedOffRampEdge_0" departPos="296.63" departSpeed="27.14" departDelay="0.00" arrival="23514.50" arrivalLane="428960734_0" arrivalPos="475.38" arrivalSpeed="21.71" duration="114.50" routeLength="2362.18" waitingTime="0.00" waitingCount="0" stopTime="0.00" timeLoss="1.47" rerouteNo="0" devices="tripinfo_NRA_000000001509_Northbound-off-slip-2.281 ssm_NRA_000000001509_Northbound-off-slip-2.281" vType="CAV2" speedFactor="0.98" vaporized=""/>
    <tripinfo id="N7-W1.36" depart="23400.00" departLane="457424511#3_0" departPos="323.65" departSpeed="0.31" departDelay="0.00" arrival="23514.50" arrivalLane="345616204#1.655_0" arrivalPos="379.47" arrivalSpeed="26.53" duration="114.50" routeLength="2129.42" waitingTime="0.00" waitingCount="0" stopTime="0.00" timeLoss="10.18" rerouteNo="0" devices="tripinfo_N7-W1.36 ssm_N7-W1.36" vType="HDC" speedFactor="0.96" vaporized=""/>
    <tripinfo id="NRA_000000001509_Northbound-1.826" depart="23408.50" departLane="75259388-AddedOffRampEdge_0" departPos="343.97" departSpeed="26.83" departDelay="0.39" arrival="23522.00" arrivalLane="428960734_0" arrivalPos="475.38" arrivalSpeed="21.46" duration="113.50" routeLength="2314.84" waitingTime="0.00" waitingCount="0" stopTime="0.00" timeLoss="0.75" rerouteNo="0" devices="tripinfo_NRA_000000001509_Northbound-1.826 ssm_NRA_000000001509_Northbound-1.826" vType="CAV2" speedFactor="0.97" vaporized=""/>
    <tripinfo id="NRA_000000001070_Eastbound-3.1437" depart="23404.50" departLane="293596618#1-AddedOffRampEdge_3" departPos="51.50" departSpeed="22.32" departDelay="0.09" arrival="23523.00" arrivalLane="615002705#1_0" arrivalPos="622.13" arrivalSpeed="16.75" duration="118.50" routeLength="2123.29" waitingTime="0.00" waitingCount="0" stopTime="0.00" timeLoss="0.04" rerouteNo="0" devices="tripinfo_NRA_000000001070_Eastbound-3.1437 ssm_NRA_000000001070_Eastbound-3.1437" vType="CAV2" speedFactor="1.00" vaporized=""/>
    <tripinfo id="N7-W2.1267" depart="23424.00" departLane="457424511#3_0" departPos="343.73" departSpeed="17.67" departDelay="0.47" arrival="23523.00" arrivalLane="345616204#1.655_1" arrivalPos="379.47" arrivalSpeed="29.45" duration="99.00" routeLength="2109.34" waitingTime="0.00" waitingCount="0" stopTime="0.00" timeLoss="5.21" rerouteNo="0" devices="tripinfo_N7-W2.1267 ssm_N7-W2.1267" vType="HDC" speedFactor="1.06" vaporized=""/>
    <tripinfo id="NRA_000000001509_Northbound-3.240" depart="23400.00" departLane="75259388-AddedOffRampEdge_1" departPos="331.67" departSpeed="27.92" departDelay="0.00" arrival="23524.50" arrivalLane="615002705#1_0" arrivalPos="622.13" arrivalSpeed="16.75" duration="124.50" routeLength="2384.50" waitingTime="0.00" waitingCount="0" stopTime="0.00" timeLoss="2.77" rerouteNo="0" devices="tripinfo_NRA_000000001509_Northbound-3.240 ssm_NRA_000000001509_Northbound-3.240" vType="CAV2" speedFactor="1.01" vaporized=""/>
    <tripinfo id="N7-W3.1206" depart="23406.00" departLane="457424511#3_1" departPos="134.41" departSpeed="19.53" departDelay="0.44" arrival="23524.50" arrivalLane="615002705#1_1" arrivalPos="622.13" arrivalSpeed="19.53" duration="118.50" routeLength="2187.99" waitingTime="0.00" waitingCount="0" stopTime="0.00" timeLoss="6.27" rerouteNo="0" devices="tripinfo_N7-W3.1206 ssm_N7-W3.1206" vType="HDC" speedFactor="1.17" vaporized=""/>
    <tripinfo id="N7-W2.1263" depart="23400.00" departLane="457424511#3_0" departPos="191.36" departSpeed="14.77" departDelay="0.00" arrival="23525.50" arrivalLane="345616204#1.655_0" arrivalPos="379.47" arrivalSpeed="24.61" duration="125.50" routeLength="2261.71" waitingTime="0.00" waitingCount="0" stopTime="0.00" timeLoss="2.99" rerouteNo="0" devices="tripinfo_N7-W2.1263 ssm_N7-W2.1263" vType="HDC" speedFactor="0.89" vaporized=""/>
    <tripinfo id="NRA_000000001509_Northbound-2.1111" depart="23409.00" departLane="75259388-AddedOffRampEdge_1" departPos="369.68" departSpeed="28.78" departDelay="0.18" arrival="23526.00" arrivalLane="615002705#1_0" arrivalPos="622.13" arrivalSpeed="17.27" duration="117.00" routeLength="2346.49" waitingTime="0.00" waitingCount="0" stopTime="0.00" timeLoss="0.41" rerouteNo="0" devices="tripinfo_NRA_000000001509_Northbound-2.1111 ssm_NRA_000000001509_Northbound-2.1111" vType="CAV2" speedFactor="1.04" vaporized=""/>
    <tripinfo id="NRA_000000001070_Eastbound-1.157" depart="23400.00" departLane="293596618#1-AddedOffRampEdge_1" departPos="315.19" departSpeed="25.47" departDelay="0.00" arrival="23528.00" arrivalLane="345616204#1.655_1" arrivalPos="379.47" arrivalSpeed="31.85" duration="128.00" routeLength="2876.44" waitingTime="0.00" waitingCount="0" stopTime="0.00" timeLoss="10.22" rerouteNo="0" devices="tripinfo_NRA_000000001070_Eastbound-1.157 ssm_NRA_000000001070_Eastbound-1.157" vType="CAV2" speedFactor="1.15" vaporized=""/>
    <tripinfo id="N7-W3.1209" depart="23422.50" departLane="457424511#3_0" departPos="268.36" departSpeed="17.63" departDelay="0.28" arrival="23528.50" arrivalLane="345616204#1.655_0" arrivalPos="379.47" arrivalSpeed="28.26" duration="106.00" routeLength="2184.71" waitingTime="0.00" waitingCount="0" stopTime="0.00" timeLoss="7.73" rerouteNo="0" devices="tripinfo_N7-W3.1209 ssm_N7-W3.1209" vType="HDC" speedFactor="1.06" vaporized=""/>
    <tripinfo id="NRA_000000020047_Eastbound-Bus-Lane.37" depart="23400.00" departLane="48516117_1" departPos="33.92" departSpeed="23.63" departDelay="0.00" arrival="23531.50" arrivalLane="621521116#0_1" arrivalPos="269.50" arrivalSpeed="17.73" duration="131.50" routeLength="2534.12" waitingTime="0.00" waitingCount="0" stopTime="0.00" timeLoss="6.81" rerouteNo="0" devices="tripinfo_NRA_000000020047_Eastbound-Bus-Lane.37 ssm_NRA_000000020047_Eastbound-Bus-Lane.37" vType="HDC" speedFactor="1.06" vaporized=""/>
    <tripinfo id="NRA_000000001070_Eastbound-4.648" depart="23400.00" departLane="293596618#1-AddedOffRampEdge_1" departPos="404.88" departSpeed="24.42" departDelay="0.00" arrival="23533.00" arrivalLane="345616204#1.655_1" arrivalPos="379.47" arrivalSpeed="30.41" duration="133.00" routeLength="2786.75" waitingTime="0.00" waitingCount="0" stopTime="0.00" timeLoss="13.15" rerouteNo="0" devices="tripinfo_NRA_000000001070_Eastbound-4.648 ssm_NRA_000000001070_Eastbound-4.648" vType="HDC" speedFactor="1.10" vaporized=""/>
    <tripinfo id="N7-W3.1210" depart="23428.00" departLane="457424511#3_0" departPos="290.05" departSpeed="17.24" departDelay="0.22" arrival="23533.00" arrivalLane="345616204#1.655_0" arrivalPos="379.47" arrivalSpeed="28.54" duration="105.00" routeLength="2163.02" waitingTime="0.00" waitingCount="0" stopTime="0.00" timeLoss="5.94" rerouteNo="0" devices="tripinfo_N7-W3.1210 ssm_N7-W3.1210" vType="HDC" speedFactor="1.03" vaporized=""/>
    <tripinfo id="NRA_000000001070_Eastbound-3.1445" depart="23422.50" departLane="293596618#1-AddedOffRampEdge_3" departPos="409.61" departSpeed="21.02" departDelay="0.44" arrival="23534.00" arrivalLane="615002705#1_0" arrivalPos="622.13" arrivalSpeed="15.77" duration="111.50" routeLength="1765.18" waitingTime="0.00" waitingCount="0" stopTime="0.00" timeLoss="2.59" rerouteNo="0" devices="tripinfo_NRA_000000001070_Eastbound-3.1445 ssm_NRA_000000001070_Eastbound-3.1445" vType="HDC" speedFactor="0.95" vaporized=""/>
    <tripinfo id="NRA_000000001070_Eastbound-2.1616" depart="23427.00" departLane="293596618#1-AddedOffRampEdge_3" departPos="218.43" departSpeed="24.26" departDelay="0.17" arrival="23534.50" arrivalLane="615002705#1_1" arrivalPos="622.13" arrivalSpeed="18.20" duration="107.50" routeLength="1956.36" waitingTime="0.00" waitingCount="0" stopTime="0.00" timeLoss="5.14" rerouteNo="0" devices="tripinfo_NRA_000000001070_Eastbound-2.1616 ssm_NRA_000000001070_Eastbound-2.1616" vType="HDC" speedFactor="1.09" vaporized=""/>
    <tripinfo id="NRA_000000001508_Southbound-1.1747" depart="23400.00" departLane="106130759_0" departPos="380.08" departSpeed="29.70" departDelay="0.00" arrival="23538.50" arrivalLane="621521116#0_0" arrivalPos="269.50" arrivalSpeed="17.82" duration="138.50" routeLength="3282.01" waitingTime="0.00" waitingCount="0" stopTime="0.00" timeLoss="6.60" rerouteNo="0" devices="tripinfo_NRA_000000001508_Southbound-1.1747 ssm_NRA_000000001508_Southbound-1.1747" vType="HDC" speedFactor="1.07" vaporized=""/>
    <tripinfo id="NRA_000000001509_Northbound-off-slip-2.282" depart="23416.00" departLane="75259388-AddedOffRampEdge_1" departPos="237.42" departSpeed="30.91" departDelay="0.21" arrival="23539.50" arrivalLane="615002705#1_1" arrivalPos="622.13" arrivalSpeed="18.55" duration="123.50" routeLength="2478.75" waitingTime="0.00" waitingCount="0" stopTime="0.00" timeLoss="10.60" rerouteNo="0" devices="tripinfo_NRA_000000001509_Northbound-off-slip-2.282 ssm_NRA_000000001509_Northbound-off-slip-2.282" vType="HDC" speedFactor="1.11" vaporized=""/>
    <tripinfo id="NRA_000000020047_Eastbound-1.1890" depart="23421.00" departLane="48516117_0" departPos="203.71" departSpeed="24.57" departDelay="0.49" arrival="23541.50" arrivalLane="621521116#0_1" arrivalPos="269.50" arrivalSpeed="18.43" duration="120.50" routeLength="2364.33" waitingTime="0.00" waitingCount="0" stopTime="0.00" timeLoss="7.43" rerouteNo="0" devices="tripinfo_NRA_000000020047_Eastbound-1.1890 ssm_NRA_000000020047_Eastbound-1.1890" vType="CAV2" speedFactor="1.11" vaporized=""/>
    <tripinfo id="N4-W2.1328" depart="23406.00" departLane="319144060_2" departPos="36.59" departSpeed="16.17" departDelay="0.34" arrival="23541.50" arrivalLane="491989399#1-AddedOnRampEdge.925_0" arrivalPos="393.57" arrivalSpeed="21.56" duration="135.50" routeLength="2530.08" waitingTime="0.00" waitingCount="0" stopTime="0.00" timeLoss="0.85" rerouteNo="0" devices="tripinfo_N4-W2.1328 ssm_N4-W2.1328" vType="HDC" speedFactor="0.97" vaporized=""/>
    <tripinfo id="NRA_000000001070_Eastbound-2.1613" depart="23420.00" departLane="293596618#1-AddedOffRampEdge_3" departPos="274.83" departSpeed="20.15" departDelay="0.49" arrival="23542.00" arrivalLane="615002705#1_0" arrivalPos="622.13" arrivalSpeed="15.12" duration="122.00" routeLength="1899.96" waitingTime="0.00" waitingCount="0" stopTime="0.00" timeLoss="1.91" rerouteNo="0" devices="tripinfo_NRA_000000001070_Eastbound-2.1613 ssm_NRA_000000001070_Eastbound-2.1613" vType="HDC" speedFactor="0.91" vaporized=""/>
    <tripinfo id="NRA_000000001509_Northbound-3.241" depart="23407.00" departLane="75259388-AddedOffRampEdge_1" departPos="84.75" departSpeed="27.11" departDelay="0.48" arrival="23542.00" arrivalLane="615002705#1_1" arrivalPos="622.13" arrivalSpeed="16.27" duration="135.00" routeLength="2631.42" waitingTime="0.00" waitingCount="0" stopTime="0.00" timeLoss="0.31" rerouteNo="0" devices="tripinfo_NRA_000000001509_Northbound-3.241 ssm_NRA_000000001509_Northbound-3.241" vType="CAV2" speedFactor="0.98" vaporized=""/>
    <tripinfo id="NRA_000000001070_Eastbound-2.1606" depart="23402.50" departLane="293596618#1-AddedOffRampEdge_1" departPos="350.42" departSpeed="21.28" departDelay="0.06" arrival="23543.00" arrivalLane="345616204#1.655_0" arrivalPos="379.47" arrivalSpeed="28.43" duration="140.50" routeLength="2841.21" waitingTime="0.00" waitingCount="0" stopTime="0.00" timeLoss="9.74" rerouteNo="0" devices="tripinfo_NRA_000000001070_Eastbound-2.1606 ssm_NRA_000000001070_Eastbound-2.1606" vType="HDC" speedFactor="1.02" vaporized=""/>
    <tripinfo id="NRA_000000001070_Eastbound-2.1625" depart="23449.00" departLane="293596618#1-AddedOffRampEdge_3" departPos="330.37" departSpeed="25.80" departDelay="0.22" arrival="23545.00" arrivalLane="615002705#1_2" arrivalPos="622.13" arrivalSpeed="19.36" duration="96.00" routeLength="1844.42" waitingTime="0.00" waitingCount="0" stopTime="0.00" timeLoss="4.06" rerouteNo="0" devices="tripinfo_NRA_000000001070_Eastbound-2.1625 ssm_NRA_000000001070_Eastbound-2.1625" vType="HDC" speedFactor="1.16" vaporized=""/>
    <tripinfo id="NRA_000000001070_Eastbound-3.1444" depart="23420.00" departLane="293596618#1-AddedOffRampEdge_2" departPos="275.52" departSpeed="19.85" departDelay="0.15" arrival="23546.50" arrivalLane="615002705#1_0" arrivalPos="622.13" arrivalSpeed="14.87" duration="126.50" routeLength="1899.27" waitingTime="0.00" waitingCount="0" stopTime="0.00" timeLoss="4.76" rerouteNo="0" devices="tripinfo_NRA_000000001070_Eastbound-3.1444 ssm_NRA_000000001070_Eastbound-3.1444" vType="HDC" speedFactor="0.89" vaporized=""/>
    <tripinfo id="NRA_000000001509_Northbound-2.1112" depart="23413.50" departLane="75259388-AddedOffRampEdge_1" departPos="128.85" departSpeed="28.53" departDelay="0.26" arrival="23547.50" arrivalLane="615002705#1_0" arrivalPos="622.13" arrivalSpeed="17.11" duration="134.00" routeLength="2587.32" waitingTime="0.00" waitingCount="0" stopTime="0.00" timeLoss="8.04" rerouteNo="0" devices="tripinfo_NRA_000000001509_Northbound-2.1112 ssm_NRA_000000001509_Northbound-2.1112" vType="HDC" speedFactor="1.03" vaporized=""/>
    <tripinfo id="NRA_000000001509_Northbound-2.1116" depart="23431.00" departLane="75259388-AddedOffRampEdge_0" departPos="114.96" departSpeed="27.50" departDelay="0.12" arrival="23549.00" arrivalLane="428960734_0" arrivalPos="475.38" arrivalSpeed="23.27" duration="118.00" routeLength="2543.85" waitingTime="0.00" waitingCount="0" stopTime="0.00" timeLoss="6.11" rerouteNo="0" devices="tripinfo_NRA_000000001509_Northbound-2.1116 ssm_NRA_000000001509_Northbound-2.1116" vType="HDC" speedFactor="1.05" vaporized=""/>
    <tripinfo id="NRA_000000001070_Eastbound-2.1610" depart="23412.50" departLane="293596618#1-AddedOffRampEdge_1" departPos="308.81" departSpeed="24.93" departDelay="0.30" arrival="23552.00" arrivalLane="345616204#1.655_1" arrivalPos="379.47" arrivalSpeed="31.17" duration="139.50" routeLength="2882.82" waitingTime="0.00" waitingCount="0" stopTime="0.00" timeLoss="18.57" rerouteNo="0" devices="tripinfo_NRA_000000001070_Eastbound-2.1610 ssm_NRA_000000001070_Eastbound-2.1610" vType="HDC" speedFactor="1.12" vaporized=""/>
    <tripinfo id="NRA_000000001509_Northbound-1.827" depart="23416.50" departLane="75259388-AddedOffRampEdge_1" departPos="178.65" departSpeed="25.92" departDelay="0.28" arrival="23555.00" arrivalLane="615002705#1_1" arrivalPos="622.13" arrivalSpeed="18.24" duration="138.50" routeLength="2537.52" waitingTime="0.00" waitingCount="0" stopTime="0.00" timeLoss="21.67" rerouteNo="0" devices="tripinfo_NRA_000000001509_Northbound-1.827 ssm_NRA_000000001509_Northbound-1.827" vType="HDC" speedFactor="1.09" vaporized=""/>
    <tripinfo id="N7-W2.1266" depart="23418.00" departLane="457424511#3_1" departPos="131.85" departSpeed="16.69" departDelay="0.35" arrival="23556.00" arrivalLane="615002705#1_0" arrivalPos="622.13" arrivalSpeed="16.69" duration="138.00" routeLength="2190.55" waitingTime="1.00" waitingCount="1" stopTime="0.00" timeLoss="6.32" rerouteNo="0" devices="tripinfo_N7-W2.1266 ssm_N7-W2.1266" vType="CAV2" speedFactor="1.00" vaporized=""/>
    <tripinfo id="NRA_000000001070_Eastbound-2.1608" depart="23407.50" departLane="293596618#1-AddedOffRampEdge_1" departPos="438.91" departSpeed="13.44" departDelay="0.18" arrival="23558.00" arrivalLane="345616204#1.655_0" arrivalPos="379.47" arrivalSpeed="25.79" duration="150.50" routeLength="2752.72" waitingTime="0.00" waitingCount="0" stopTime="0.00" timeLoss="10.54" rerouteNo="0" devices="tripinfo_NRA_000000001070_Eastbound-2.1608 ssm_NRA_000000001070_Eastbound-2.1608" vType="HDC" speedFactor="0.93" vaporized=""/>
    <tripinfo id="NRA_000000020047_Eastbound-3.948" depart="23413.50" departLane="48516117_1" departPos="226.52" departSpeed="19.65" departDelay="0.12" arrival="23558.50" arrivalLane="621521116#0_0" arrivalPos="269.50" arrivalSpeed="14.74" duration="145.00" routeLength="2341.52" waitingTime="0.00" waitingCount="0" stopTime="0.00" timeLoss="4.76" rerouteNo="0" devices="tripinfo_NRA_000000020047_Eastbound-3.948 ssm_NRA_000000020047_Eastbound-3.948" vType="HDC" speedFactor="0.88" vaporized=""/>
    <tripinfo id="N4-W2.1333" depart="23434.00" departLane="319144060_2" departPos="242.59" departSpeed="15.89" departDelay="0.04" arrival="23558.50" arrivalLane="491989399#1-AddedOnRampEdge.925_0" arrivalPos="393.57" arrivalSpeed="21.18" duration="124.50" routeLength="2324.08" waitingTime="0.00" waitingCount="0" stopTime="0.00" timeLoss="0.37" rerouteNo="0" devices="tripinfo_N4-W2.1333 ssm_N4-W2.1333" vType="CAV2" speedFactor="0.95" vaporized=""/>
    <tripinfo id="NRA_000000001070_Eastbound-2.1622" depart="23441.50" departLane="293596618#1-AddedOffRampEdge_3" departPos="87.28" departSpeed="22.00" departDelay="0.04" arrival="23560.00" arrivalLane="615002705#1_0" arrivalPos="622.13" arrivalSpeed="16.50" duration="118.50" routeLength="2087.51" waitingTime="0.00" waitingCount="0" stopTime="0.00" timeLoss="0.11" rerouteNo="0" devices="tripinfo_NRA_000000001070_Eastbound-2.1622 ssm_NRA_000000001070_Eastbound-2.1622" vType="CAV2" speedFactor="0.99" vaporized=""/>
    <tripinfo id="N7-W3.1212" depart="23439.00" departLane="457424511#3_0" departPos="289.20" departSpeed="16.13" departDelay="0.11" arrival="23560.00" arrivalLane="345616204#1.655_0" arrivalPos="379.47" arrivalSpeed="26.88" duration="121.00" routeLength="2163.87" waitingTime="0.00" waitingCount="0" stopTime="0.00" timeLoss="14.85" rerouteNo="0" devices="tripinfo_N7-W3.1212 ssm_N7-W3.1212" vType="CAV2" speedFactor="0.97" vaporized=""/>
    <tripinfo id="NRA_000000001509_Northbound-off-slip-1.444" depart="23415.50" departLane="75259388-AddedOffRampEdge_1" departPos="37.01" departSpeed="28.65" departDelay="0.12" arrival="23561.50" arrivalLane="615002705#1_1" arrivalPos="622.13" arrivalSpeed="17.19" duration="146.00" routeLength="2679.16" waitingTime="0.00" waitingCount="0" stopTime="0.00" timeLoss="16.88" rerouteNo="0" devices="tripinfo_NRA_000000001509_Northbound-off-slip-1.444 ssm_NRA_000000001509_Northbound-off-slip-1.444" vType="HDC" speedFactor="1.03" vaporized=""/>
    <tripinfo id="N7-W2.1269" depart="23435.50" departLane="457424511#3_1" departPos="296.17" departSpeed="14.79" departDelay="0.21" arrival="23562.00" arrivalLane="428960734_0" arrivalPos="475.38" arrivalSpeed="19.71" duration="126.50" routeLength="1965.85" waitingTime="0.00" waitingCount="0" stopTime="0.00" timeLoss="4.41" rerouteNo="0" devices="tripinfo_N7-W2.1269 ssm_N7-W2.1269" vType="HDC" speedFactor="0.89" vaporized=""/>
    <tripinfo id="NRA_000000001508_Southbound-1.1751" depart="23416.50" departLane="106130759_0" departPos="769.65" departSpeed="26.88" departDelay="0.06" arrival="23563.50" arrivalLane="621521116#0_0" arrivalPos="269.50" arrivalSpeed="16.11" duration="147.00" routeLength="2892.44" waitingTime="0.00" waitingCount="0" stopTime="0.00" timeLoss="15.62" rerouteNo="0" devices="tripinfo_NRA_000000001508_Southbound-1.1751 ssm_NRA_000000001508_Southbound-1.1751" vType="HDC" speedFactor="0.97" vaporized=""/>
    <tripinfo id="NRA_000000001508_Southbound-4.1882" depart="23409.00" departLane="106130759_0" departPos="78.62" departSpeed="29.93" departDelay="0.26" arrival="23564.00" arrivalLane="621521116#0_1" arrivalPos="269.50" arrivalSpeed="17.96" duration="155.00" routeLength="3583.47" waitingTime="0.00" waitingCount="0" stopTime="0.00" timeLoss="14.17" rerouteNo="0" devices="tripinfo_NRA_000000001508_Southbound-4.1882 ssm_NRA_000000001508_Southbound-4.1882" vType="HDC" speedFactor="1.08" vaporized=""/>
    <tripinfo id="NRA_000000001070_Eastbound-4.651" depart="23409.50" departLane="293596618#1-AddedOffRampEdge_1" departPos="317.60" departSpeed="21.24" departDelay="0.41" arrival="23564.00" arrivalLane="345616204#1.655_2" arrivalPos="379.47" arrivalSpeed="26.55" duration="154.50" routeLength="2874.03" waitingTime="0.00" waitingCount="0" stopTime="0.00" timeLoss="12.65" rerouteNo="0" devices="tripinfo_NRA_000000001070_Eastbound-4.651 ssm_NRA_000000001070_Eastbound-4.651" vType="HDC" speedFactor="0.96" vaporized=""/>
    <tripinfo id="N7-W3.1214" depart="23450.00" departLane="457424511#3_0" departPos="134.63" departSpeed="17.31" departDelay="0.00" arrival="23564.00" arrivalLane="345616204#1.655_3" arrivalPos="379.47" arrivalSpeed="31.88" duration="114.00" routeLength="2318.44" waitingTime="0.00" waitingCount="0" stopTime="0.00" timeLoss="16.40" rerouteNo="0" devices="tripinfo_N7-W3.1214 ssm_N7-W3.1214" vType="HDC" speedFactor="1.15" vaporized=""/>
    <tripinfo id="N7-W3.1215" depart="23456.00" departLane="457424511#3_0" departPos="292.12" departSpeed="17.75" departDelay="0.44" arrival="23565.50" arrivalLane="345616204#1.655_2" arrivalPos="379.47" arrivalSpeed="29.58" duration="109.50" routeLength="2160.95" waitingTime="3.00" waitingCount="1" stopTime="0.00" timeLoss="12.95" rerouteNo="0" devices="tripinfo_N7-W3.1215 ssm_N7-W3.1215" vType="CAV2" speedFactor="1.06" vaporized=""/>
    <tripinfo id="N7-W2.1268" depart="23429.50" departLane="457424511#3_0" departPos="207.88" departSpeed="13.93" departDelay="0.09" arrival="23567.00" arrivalLane="345616204#1.655_0" arrivalPos="379.47" arrivalSpeed="23.21" duration="137.50" routeLength="2245.19" waitingTime="0.00" waitingCount="0" stopTime="0.00" timeLoss="8.63" rerouteNo="0" devices="tripinfo_N7-W2.1268 ssm_N7-W2.1268" vType="HDC" speedFactor="0.84" vaporized=""/>
    <tripinfo id="NRA_000000001508_Southbound-1.1749" depart="23408.50" departLane="106130759_0" departPos="485.47" departSpeed="30.95" departDelay="0.28" arrival="23567.50" arrivalLane="621521116#0_1" arrivalPos="269.50" arrivalSpeed="18.40" duration="159.00" routeLength="3176.62" waitingTime="0.50" waitingCount="1" stopTime="0.00" timeLoss="35.80" rerouteNo="0" devices="tripinfo_NRA_000000001508_Southbound-1.1749 ssm_NRA_000000001508_Southbound-1.1749" vType="HDC" speedFactor="1.11" vaporized=""/>
    <tripinfo id="NRA_000000001070_Eastbound-2.1605" depart="23400.00" departLane="293596618#1-AddedOffRampEdge_1" departPos="9.83" departSpeed="21.71" departDelay="0.00" arrival="23568.00" arrivalLane="345616204#1.655_0" arrivalPos="379.47" arrivalSpeed="25.95" duration="168.00" routeLength="3181.80" waitingTime="0.00" waitingCount="0" stopTime="0.00" timeLoss="15.33" rerouteNo="0" devices="tripinfo_NRA_000000001070_Eastbound-2.1605 ssm_NRA_000000001070_Eastbound-2.1605" vType="CAV2" speedFactor="0.98" vaporized=""/>
    <tripinfo id="NRA_000000001509_Northbound-1.829" depart="23432.50" departLane="75259388-AddedOffRampEdge_1" departPos="334.86" departSpeed="25.94" departDelay="0.07" arrival="23569.50" arrivalLane="615002705#1_0" arrivalPos="622.13" arrivalSpeed="15.57" duration="137.00" routeLength="2381.31" waitingTime="0.00" waitingCount="0" stopTime="0.00" timeLoss="6.46" rerouteNo="0" devices="tripinfo_NRA_000000001509_Northbound-1.829 ssm_NRA_000000001509_Northbound-1.829" vType="HDC" speedFactor="0.93" vaporized=""/>
    <tripinfo id="NRA_000000001070_Eastbound-3.1447" depart="23426.50" departLane="293596618#1-AddedOffRampEdge_1" departPos="433.54" departSpeed="9.67" departDelay="0.03" arrival="23570.50" arrivalLane="345616204#1.655_2" arrivalPos="379.47" arrivalSpeed="28.48" duration="144.00" routeLength="2758.09" waitingTime="0.00" waitingCount="0" stopTime="0.00" timeLoss="17.41" rerouteNo="0" devices="tripinfo_NRA_000000001070_Eastbound-3.1447 ssm_NRA_000000001070_Eastbound-3.1447" vType="HDC" speedFactor="1.03" vaporized=""/>
    <tripinfo id="NRA_000000001070_Eastbound-2.1630" depart="23461.00" departLane="293596618#1-AddedOffRampEdge_3" departPos="342.09" departSpeed="22.07" departDelay="0.03" arrival="23571.00" arrivalLane="615002705#1_1" arrivalPos="622.13" arrivalSpeed="16.55" duration="110.00" routeLength="1832.70" waitingTime="0.00" waitingCount="0" stopTime="0.00" timeLoss="3.20" rerouteNo="0" devices="tripinfo_NRA_000000001070_Eastbound-2.1630 ssm_NRA_000000001070_Eastbound-2.1630" vType="HDT" speedFactor="0.99" vaporized=""/>
    <tripinfo id="NRA_000000020047_Eastbound-2.993" depart="23431.00" departLane="48516117_0" departPos="250.71" departSpeed="21.43" departDelay="0.16" arrival="23573.00" arrivalLane="621521116#0_1" arrivalPos="269.50" arrivalSpeed="16.07" duration="142.00" routeLength="2317.33" waitingTime="0.00" waitingCount="0" stopTime="0.00" timeLoss="14.96" rerouteNo="0" devices="tripinfo_NRA_000000020047_Eastbound-2.993 ssm_NRA_000000020047_Eastbound-2.993" vType="HDC" speedFactor="0.96" vaporized=""/>
    <tripinfo id="NRA_000000001070_Eastbound-2.1612" depart="23417.50" departLane="293596618#1-AddedOffRampEdge_1" departPos="58.45" departSpeed="23.39" departDelay="0.43" arrival="23574.50" arrivalLane="345616204#1.655_2" arrivalPos="379.47" arrivalSpeed="29.24" duration="157.00" routeLength="3133.18" waitingTime="0.00" waitingCount="0" stopTime="0.00" timeLoss="17.28" rerouteNo="0" devices="tripinfo_NRA_000000001070_Eastbound-2.1612 ssm_NRA_000000001070_Eastbound-2.1612" vType="CAV2" speedFactor="1.05" vaporized=""/>
    <tripinfo id="NRA_000000001070_Eastbound-2.1619" depart="23434.50" departLane="293596618#1-AddedOffRampEdge_1" departPos="392.03" departSpeed="17.86" departDelay="0.35" arrival="23575.00" arrivalLane="345616204#1.655_3" arrivalPos="379.47" arrivalSpeed="31.44" duration="140.50" routeLength="2799.60" waitingTime="0.00" waitingCount="0" stopTime="0.00" timeLoss="23.63" rerouteNo="0" devices="tripinfo_NRA_000000001070_Eastbound-2.1619 ssm_NRA_000000001070_Eastbound-2.1619" vType="HDC" speedFactor="1.13" vaporized=""/>
    <tripinfo id="NRA_000000020047_Eastbound-1.1899" depart="23444.00" departLane="48516117_0" departPos="386.35" departSpeed="20.96" departDelay="0.41" arrival="23577.00" arrivalLane="621521116#0_1" arrivalPos="269.50" arrivalSpeed="16.90" duration="133.00" routeLength="2181.69" waitingTime="0.00" waitingCount="0" stopTime="0.00" timeLoss="18.53" rerouteNo="0" devices="tripinfo_NRA_000000020047_Eastbound-1.1899 ssm_NRA_000000020047_Eastbound-1.1899" vType="HDC" speedFactor="1.02" vaporized=""/>