<?xml version="1.0" encoding="UTF-8"?>

<!-- generated on Thu Apr 15 18:00:01 2021 by Eclipse SUMO sumo Version 1.8.0
<configuration xmlns:xsi="http://www.w3.org/2001/XMLSchema-instance" xsi:noNamespaceSchemaLocation="http://sumo.dlr.de/xsd/sumoConfiguration.xsd">

    <input>
        <net-file value="M50network.net.xml"/>
        <additional-files value="vtypes.add.xml,M50_routes.rou.xml,M50_emitters.emi.xml,M50_detectors.poi.xml,output.add.xml"/>
    </input>

    <output>
        <tripinfo-output value="/home/mohit/simulation/mpr_0.2/results/tripinfo.out.xml"/>
    </output>

    <time>
        <begin value="25000"/>
        <end value="27200"/>
        <step-length value="0.5"/>
    </time>

    <processing>
        <collision.mingap-factor value="0"/>
        <emergencydecel.warning-threshold value="5"/>
    </processing>

    <ssm_device>
        <device.ssm.probability value="1"/>
        <device.ssm.deterministic value="true"/>
        <device.ssm.measures value="TTC PET"/>
        <device.ssm.thresholds value="1.5 2"/>
        <device.ssm.trajectories value="false"/>
        <device.ssm.range value="20"/>
        <device.ssm.extratime value="0.5"/>
        <device.ssm.file value="/home/mohit/simulation/mpr_0.2/results/ssm.out.xml"/>
        <device.ssm.geo value="true"/>
    </ssm_device>

    <gui_only>
        <tracker-interval value="0.5"/>
    </gui_only>

</configuration>
-->

<meandata xmlns:xsi="http://www.w3.org/2001/XMLSchema-instance" xsi:noNamespaceSchemaLocation="http://sumo.dlr.de/xsd/meandata_file.xsd">
    <interval begin="25000.00" end="26800.00" id="edgedata">
        <edge id="106130759" sampledSeconds="85857.32" traveltime="42.35" overlapTraveltime="42.74" density="60.24" laneDensity="15.06" occupancy="7.71" waitingTime="88.00" timeLoss="27885.74" speed="18.65" departed="2963" arrived="0" entered="0" left="2834" laneChangedFrom="1288" laneChangedTo="1288"/>
        <edge id="106130759-AddedOffRampEdge" sampledSeconds="41372.52" traveltime="16.62" overlapTraveltime="17.10" density="184.38" laneDensity="36.88" occupancy="18.29" waitingTime="4872.50" timeLoss="29931.04" speed="7.59" departed="0" arrived="0" entered="2433" left="2407" laneChangedFrom="835" laneChangedTo="835"/>
        <edge id="106130759.1186" sampledSeconds="118140.13" traveltime="43.27" overlapTraveltime="43.82" density="147.88" laneDensity="36.97" occupancy="18.77" waitingTime="6024.56" timeLoss="74323.65" speed="10.25" departed="0" arrived="0" entered="2741" left="2651" laneChangedFrom="192" laneChangedTo="192"/>
        <edge id="106130759.1630" sampledSeconds="70878.62" traveltime="26.40" overlapTraveltime="27.01" density="165.42" laneDensity="41.36" occupancy="20.86" waitingTime="3988.00" timeLoss="47782.80" speed="9.00" departed="0" arrived="0" entered="2651" left="2598" laneChangedFrom="59" laneChangedTo="59"/>
        <edge id="106130759.1868" sampledSeconds="73584.76" traveltime="27.99" overlapTraveltime="28.66" density="177.83" laneDensity="44.46" occupancy="22.40" waitingTime="5325.31" timeLoss="51743.75" speed="8.20" departed="0" arrived="0" entered="2598" left="2536" laneChangedFrom="49" laneChangedTo="49"/>
        <edge id="106130759.2098" sampledSeconds="114763.09" traveltime="45.31" overlapTraveltime="46.00" density="188.22" laneDensity="47.06" occupancy="23.85" waitingTime="8688.02" timeLoss="83720.75" speed="7.48" departed="0" arrived="0" entered="2535" left="2463" laneChangedFrom="226" laneChangedTo="226"/>
        <edge id="106130759.2437" sampledSeconds="52559.54" traveltime="20.74" overlapTraveltime="21.46" density="194.16" laneDensity="48.54" occupancy="24.21" waitingTime="6009.50" timeLoss="38777.57" speed="7.25" departed="0" arrived="0" entered="2463" left="2435" laneChangedFrom="141" laneChangedTo="141"/>
        <edge id="106130759.791" sampledSeconds="87110.40" traveltime="30.82" overlapTraveltime="31.27" density="122.76" laneDensity="30.69" occupancy="15.60" waitingTime="2181.77" timeLoss="46832.30" speed="12.77" departed="0" arrived="0" entered="2834" left="2741" laneChangedFrom="217" laneChangedTo="217"/>
        <edge id="11955830" sampledSeconds="19688.83" traveltime="17.59" overlapTraveltime="17.93" density="40.52" laneDensity="13.51" occupancy="6.74" waitingTime="30.00" timeLoss="1439.35" speed="15.34" departed="0" arrived="0" entered="1105" left="1092" laneChangedFrom="220" laneChangedTo="220"/>
        <edge id="11955831" sampledSeconds="7704.83" traveltime="7.11" overlapTraveltime="7.43" density="38.43" laneDensity="9.61" occupancy="4.69" waitingTime="0.00" timeLoss="390.27" speed="15.67" departed="0" arrived="0" entered="1040" left="1033" laneChangedFrom="136" laneChangedTo="136"/>
        <edge id="11959492" sampledSeconds="15516.41" traveltime="39.34" overlapTraveltime="39.93" density="29.93" laneDensity="29.93" occupancy="14.98" waitingTime="0.00" timeLoss="1911.24" speed="7.34" departed="0" arrived="0" entered="395" left="384" laneChangedFrom="0" laneChangedTo="0"/>
        <edge id="11994462" sampledSeconds="22140.93" traveltime="26.64" overlapTraveltime="27.36" density="70.13" laneDensity="35.07" occupancy="17.62" waitingTime="17.00" timeLoss="4907.72" speed="6.60" departed="0" arrived="0" entered="817" left="802" laneChangedFrom="248" laneChangedTo="248"/>
        <edge id="11994462-AddedOnRampEdge" sampledSeconds="7251.27" traveltime="8.16" overlapTraveltime="8.86" density="67.04" laneDensity="33.52" occupancy="15.92" waitingTime="0.00" timeLoss="791.10" speed="7.36" departed="0" arrived="0" entered="820" left="817" laneChangedFrom="128" laneChangedTo="128"/>
        <edge id="128189136" sampledSeconds="17458.42" traveltime="16.58" overlapTraveltime="16.89" density="38.07" laneDensity="19.03" occupancy="9.56" waitingTime="0.00" timeLoss="1227.48" speed="15.39" departed="0" arrived="0" entered="1039" left="1030" laneChangedFrom="155" laneChangedTo="155"/>
        <edge id="146909950#0" sampledSeconds="17237.23" traveltime="7.57" overlapTraveltime="8.08" density="149.89" laneDensity="29.98" occupancy="14.07" waitingTime="2228.58" timeLoss="10552.50" speed="8.53" departed="0" arrived="0" entered="2143" left="2125" laneChangedFrom="157" laneChangedTo="157"/>
        <edge id="146909950#1" sampledSeconds="15265.61" traveltime="13.53" overlapTraveltime="13.99" density="76.60" laneDensity="25.53" occupancy="12.37" waitingTime="563.00" timeLoss="9459.41" speed="8.28" departed="0" arrived="0" entered="1094" left="1089" laneChangedFrom="287" laneChangedTo="287"/>
        <edge id="155345296#0" sampledSeconds="4349.89" traveltime="15.89" overlapTraveltime="16.20" density="9.40" laneDensity="4.70" occupancy="2.34" waitingTime="0.00" timeLoss="122.93" speed="16.18" departed="0" arrived="0" entered="272" left="267" laneChangedFrom="148" laneChangedTo="148"/>
        <edge id="155345296#1" sampledSeconds="2245.15" traveltime="3.96" overlapTraveltime="4.29" density="20.12" laneDensity="6.71" occupancy="3.16" waitingTime="0.00" timeLoss="139.64" speed="15.63" departed="0" arrived="0" entered="523" left="523" laneChangedFrom="253" laneChangedTo="253"/>
        <edge id="16403444#0" sampledSeconds="8416.67" traveltime="15.86" overlapTraveltime="16.18" density="18.46" laneDensity="9.23" occupancy="4.61" waitingTime="0.00" timeLoss="346.94" speed="15.97" departed="0" arrived="0" entered="521" left="519" laneChangedFrom="79" laneChangedTo="79"/>
        <edge id="16403444#1" sampledSeconds="8289.06" traveltime="9.48" overlapTraveltime="9.80" density="30.71" laneDensity="10.24" occupancy="5.05" waitingTime="0.00" timeLoss="411.58" speed="15.82" departed="0" arrived="0" entered="848" left="843" laneChangedFrom="60" laneChangedTo="60"/>
        <edge id="16403446" sampledSeconds="14259.88" traveltime="12.38" overlapTraveltime="12.84" density="72.04" laneDensity="36.02" occupancy="17.70" waitingTime="184.00" timeLoss="6534.09" speed="8.96" departed="0" arrived="0" entered="1115" left="1107" laneChangedFrom="261" laneChangedTo="261"/>
        <edge id="16808971" sampledSeconds="7385.13" traveltime="22.00" overlapTraveltime="22.33" density="12.00" laneDensity="12.00" occupancy="6.03" waitingTime="0.00" timeLoss="485.14" speed="15.54" departed="0" arrived="0" entered="332" left="329" laneChangedFrom="0" laneChangedTo="0"/>
        <edge id="17516648" sampledSeconds="21715.61" traveltime="20.91" overlapTraveltime="22.14" density="134.27" laneDensity="67.14" occupancy="32.19" waitingTime="0.00" timeLoss="15714.37" speed="4.29" departed="0" arrived="0" entered="987" left="975" laneChangedFrom="3" laneChangedTo="3"/>
        <edge id="17550539" sampledSeconds="2364.05" traveltime="6.35" overlapTraveltime="6.66" density="13.20" laneDensity="13.20" occupancy="6.35" waitingTime="0.00" timeLoss="194.97" speed="15.69" departed="0" arrived="0" entered="355" left="354" laneChangedFrom="0" laneChangedTo="0"/>
        <edge id="18702678" sampledSeconds="1122.87" traveltime="4.00" overlapTraveltime="4.39" density="10.56" laneDensity="10.56" occupancy="4.95" waitingTime="0.00" timeLoss="112.53" speed="14.64" departed="0" arrived="0" entered="256" left="256" laneChangedFrom="0" laneChangedTo="0"/>
        <edge id="18702680" sampledSeconds="1282.95" traveltime="4.69" overlapTraveltime="5.01" density="9.97" laneDensity="9.97" occupancy="4.74" waitingTime="0.00" timeLoss="107.12" speed="15.29" departed="0" arrived="0" entered="256" left="256" laneChangedFrom="0" laneChangedTo="0"/>
        <edge id="18702682" sampledSeconds="1496.37" traveltime="5.47" overlapTraveltime="5.85" density="11.51" laneDensity="11.51" occupancy="5.50" waitingTime="0.00" timeLoss="98.68" speed="13.23" departed="0" arrived="0" entered="256" left="256" laneChangedFrom="0" laneChangedTo="0"/>
        <edge id="208416643" sampledSeconds="279.83" traveltime="0.70" overlapTraveltime="1.02" density="13.73" laneDensity="6.87" occupancy="2.44" waitingTime="0.00" timeLoss="5.34" speed="16.15" departed="0" arrived="0" entered="274" left="274" laneChangedFrom="3" laneChangedTo="3"/>
        <edge id="22941414" sampledSeconds="30981.80" traveltime="18.30" overlapTraveltime="18.63" density="70.04" laneDensity="35.02" occupancy="17.64" waitingTime="0.00" timeLoss="5949.83" speed="13.46" departed="0" arrived="0" entered="1672" left="1656" laneChangedFrom="40" laneChangedTo="40"/>
        <edge id="22941416#0" sampledSeconds="7432.60" traveltime="8.78" overlapTraveltime="9.17" density="35.24" laneDensity="35.24" occupancy="17.33" waitingTime="0.00" timeLoss="1461.93" speed="13.35" departed="0" arrived="0" entered="813" left="809" laneChangedFrom="0" laneChangedTo="0"/>
        <edge id="22941416#1" sampledSeconds="22761.86" traveltime="28.00" overlapTraveltime="28.40" density="34.91" laneDensity="34.91" occupancy="17.68" waitingTime="0.00" timeLoss="5146.03" speed="12.94" departed="0" arrived="0" entered="809" left="796" laneChangedFrom="0" laneChangedTo="0"/>
        <edge id="261187938" sampledSeconds="11970.52" traveltime="5.43" overlapTraveltime="6.10" density="166.38" laneDensity="41.60" occupancy="18.98" waitingTime="748.00" timeLoss="7958.65" speed="7.39" departed="0" arrived="0" entered="1965" left="1960" laneChangedFrom="85" laneChangedTo="85"/>
        <edge id="261187938-AddedOffRampEdge" sampledSeconds="22221.10" traveltime="10.91" overlapTraveltime="11.37" density="128.77" laneDensity="32.19" occupancy="15.77" waitingTime="545.00" timeLoss="13154.78" speed="8.89" departed="0" arrived="0" entered="1960" left="1950" laneChangedFrom="429" laneChangedTo="429"/>
        <edge id="261583463" sampledSeconds="1298.96" traveltime="12.53" overlapTraveltime="12.86" density="3.62" laneDensity="3.62" occupancy="1.84" waitingTime="0.00" timeLoss="47.93" speed="15.91" departed="0" arrived="0" entered="101" left="101" laneChangedFrom="0" laneChangedTo="0"/>
        <edge id="261583464" sampledSeconds="3753.11" traveltime="11.78" overlapTraveltime="12.12" density="11.84" laneDensity="11.84" occupancy="5.89" waitingTime="0.00" timeLoss="332.18" speed="14.95" departed="0" arrived="0" entered="313" left="306" laneChangedFrom="0" laneChangedTo="0"/>
        <edge id="26378010" sampledSeconds="1939.04" traveltime="5.83" overlapTraveltime="6.17" density="12.52" laneDensity="12.52" occupancy="6.04" waitingTime="0.00" timeLoss="193.16" speed="14.78" departed="0" arrived="0" entered="316" left="313" laneChangedFrom="0" laneChangedTo="0"/>
        <edge id="26380527" sampledSeconds="27272.63" traveltime="24.40" overlapTraveltime="24.93" density="61.26" laneDensity="30.63" occupancy="15.22" waitingTime="64.50" timeLoss="17115.21" speed="10.12" departed="0" arrived="0" entered="1108" left="1082" laneChangedFrom="123" laneChangedTo="123"/>
        <edge id="273755091#2" sampledSeconds="732.74" traveltime="0.63" overlapTraveltime="1.03" density="68.76" laneDensity="22.92" occupancy="7.19" waitingTime="92.00" timeLoss="255.98" speed="10.79" departed="0" arrived="0" entered="716" left="716" laneChangedFrom="2" laneChangedTo="2"/>
        <edge id="28001589" sampledSeconds="2045.28" traveltime="4.20" overlapTraveltime="4.55" density="17.79" laneDensity="8.90" occupancy="4.23" waitingTime="6.50" timeLoss="180.08" speed="15.17" departed="0" arrived="0" entered="451" left="449" laneChangedFrom="5" laneChangedTo="5"/>
        <edge id="28458821" sampledSeconds="20132.35" traveltime="26.35" overlapTraveltime="26.70" density="30.77" laneDensity="30.77" occupancy="15.37" waitingTime="0.00" timeLoss="3477.07" speed="13.80" departed="0" arrived="0" entered="761" left="747" laneChangedFrom="0" laneChangedTo="0"/>
        <edge id="28458824" sampledSeconds="8963.20" traveltime="29.21" overlapTraveltime="29.53" density="11.51" laneDensity="11.51" occupancy="5.83" waitingTime="0.00" timeLoss="916.71" speed="14.82" departed="0" arrived="0" entered="306" left="300" laneChangedFrom="0" laneChangedTo="0"/>
        <edge id="28458828" sampledSeconds="10454.66" traveltime="5.54" overlapTraveltime="5.89" density="72.34" laneDensity="14.47" occupancy="6.93" waitingTime="56.50" timeLoss="1317.36" speed="14.49" departed="0" arrived="0" entered="1777" left="1773" laneChangedFrom="1062" laneChangedTo="1062"/>
        <edge id="28458895" sampledSeconds="9687.88" traveltime="5.30" overlapTraveltime="5.55" density="53.58" laneDensity="13.39" occupancy="6.47" waitingTime="0.00" timeLoss="1357.22" speed="19.01" departed="0" arrived="0" entered="1750" left="1742" laneChangedFrom="246" laneChangedTo="246"/>
        <edge id="28531510" sampledSeconds="1628.19" traveltime="3.56" overlapTraveltime="3.97" density="19.71" laneDensity="9.86" occupancy="4.53" waitingTime="7.50" timeLoss="364.59" speed="12.85" departed="0" arrived="0" entered="412" left="409" laneChangedFrom="101" laneChangedTo="101"/>
        <edge id="28531510.48" sampledSeconds="3584.90" traveltime="8.47" overlapTraveltime="8.81" density="16.19" laneDensity="16.19" occupancy="7.89" waitingTime="0.00" timeLoss="438.33" speed="14.54" departed="0" arrived="0" entered="409" left="405" laneChangedFrom="0" laneChangedTo="0"/>
        <edge id="29038677" sampledSeconds="5086.13" traveltime="16.90" overlapTraveltime="17.22" density="10.96" laneDensity="10.96" occupancy="5.47" waitingTime="0.00" timeLoss="409.88" speed="15.26" departed="0" arrived="0" entered="296" left="294" laneChangedFrom="0" laneChangedTo="0"/>
        <edge id="29332864" sampledSeconds="8304.64" traveltime="23.89" overlapTraveltime="24.27" density="12.78" laneDensity="12.78" occupancy="6.45" waitingTime="0.00" timeLoss="836.64" speed="15.08" departed="0" arrived="0" entered="347" left="339" laneChangedFrom="0" laneChangedTo="0"/>
        <edge id="293596618#1-AddedOffRampEdge" sampledSeconds="129069.45" traveltime="70.45" overlapTraveltime="71.15" density="147.46" laneDensity="36.86" occupancy="18.77" waitingTime="5103.90" timeLoss="88654.08" speed="6.91" departed="2054" arrived="0" entered="0" left="1965" laneChangedFrom="1174" laneChangedTo="1174"/>
        <edge id="30414032" sampledSeconds="16540.42" traveltime="21.45" overlapTraveltime="21.78" density="30.71" laneDensity="30.71" occupancy="15.31" waitingTime="0.00" timeLoss="2531.52" speed="13.97" departed="0" arrived="0" entered="765" left="754" laneChangedFrom="0" laneChangedTo="0"/>
        <edge id="319144060" sampledSeconds="16530.29" traveltime="20.31" overlapTraveltime="20.66" density="33.94" laneDensity="11.31" occupancy="5.58" waitingTime="0.50" timeLoss="3135.89" speed="13.34" departed="1069" arrived="0" entered="0" left="1055" laneChangedFrom="81" laneChangedTo="81"/>
        <edge id="328393125" sampledSeconds="22736.73" traveltime="12.47" overlapTraveltime="12.71" density="40.98" laneDensity="10.24" occupancy="5.17" waitingTime="0.50" timeLoss="2426.33" speed="24.65" departed="0" arrived="0" entered="1799" left="1780" laneChangedFrom="462" laneChangedTo="462"/>
        <edge id="328393125-AddedOnRampEdge" sampledSeconds="9166.11" traveltime="4.86" overlapTraveltime="5.08" density="50.45" laneDensity="10.09" occupancy="4.93" waitingTime="7.00" timeLoss="2236.78" speed="20.86" departed="0" arrived="0" entered="1807" left="1799" laneChangedFrom="323" laneChangedTo="323"/>
        <edge id="332655578" sampledSeconds="74816.52" traveltime="77.82" overlapTraveltime="78.66" density="127.25" laneDensity="63.63" occupancy="31.82" waitingTime="34.50" timeLoss="36937.40" speed="4.22" departed="0" arrived="0" entered="975" left="930" laneChangedFrom="149" laneChangedTo="149"/>
        <edge id="332655581" sampledSeconds="3070.83" traveltime="7.75" overlapTraveltime="8.01" density="14.52" laneDensity="14.52" occupancy="7.01" waitingTime="0.00" timeLoss="1359.61" speed="15.31" departed="0" arrived="0" entered="384" left="382" laneChangedFrom="0" laneChangedTo="0"/>
        <edge id="345616204#1" sampledSeconds="28888.25" traveltime="13.54" overlapTraveltime="13.75" density="48.59" laneDensity="12.15" occupancy="6.14" waitingTime="0.00" timeLoss="3368.53" speed="24.40" departed="0" arrived="0" entered="2109" left="2092" laneChangedFrom="343" laneChangedTo="343"/>
        <edge id="345616204#1-AddedOnRampEdge" sampledSeconds="11466.37" traveltime="5.16" overlapTraveltime="5.43" density="69.22" laneDensity="13.84" occupancy="6.76" waitingTime="121.50" timeLoss="4035.72" speed="17.90" departed="0" arrived="0" entered="2117" left="2109" laneChangedFrom="474" laneChangedTo="474"/>
        <edge id="345616204#1.334" sampledSeconds="27023.08" traveltime="12.77" overlapTraveltime="12.97" density="46.66" laneDensity="11.67" occupancy="5.89" waitingTime="0.00" timeLoss="2365.51" speed="25.20" departed="0" arrived="0" entered="2092" left="2079" laneChangedFrom="209" laneChangedTo="209"/>
        <edge id="345616204#1.655" sampledSeconds="31287.77" traveltime="14.97" overlapTraveltime="15.16" density="45.81" laneDensity="11.45" occupancy="5.81" waitingTime="0.00" timeLoss="2560.53" speed="25.36" departed="0" arrived="2060" entered="2079" left="0" laneChangedFrom="39" laneChangedTo="39"/>
        <edge id="360361373" sampledSeconds="40490.16" traveltime="18.46" overlapTraveltime="18.66" density="49.00" laneDensity="12.25" occupancy="6.16" waitingTime="0.00" timeLoss="3969.80" speed="24.88" departed="0" arrived="0" entered="2184" left="2157" laneChangedFrom="560" laneChangedTo="560"/>
        <edge id="360361373-AddedOffRampEdge" sampledSeconds="11920.48" traveltime="5.79" overlapTraveltime="6.16" density="71.03" laneDensity="14.21" occupancy="6.86" waitingTime="1406.50" timeLoss="5021.65" speed="15.96" departed="0" arrived="0" entered="1957" left="1915" laneChangedFrom="349" laneChangedTo="349"/>
        <edge id="360361373-AddedOnRampEdge" sampledSeconds="11598.40" traveltime="5.05" overlapTraveltime="5.30" density="70.01" laneDensity="14.00" occupancy="6.79" waitingTime="28.50" timeLoss="3893.23" speed="18.32" departed="0" arrived="0" entered="2193" left="2185" laneChangedFrom="1081" laneChangedTo="1081"/>
        <edge id="360361373.1498" sampledSeconds="33586.90" traveltime="15.89" overlapTraveltime="16.09" density="46.51" laneDensity="11.63" occupancy="5.84" waitingTime="0.00" timeLoss="2847.50" speed="25.25" departed="0" arrived="0" entered="2101" left="2076" laneChangedFrom="215" laneChangedTo="215"/>
        <edge id="360361373.1899" sampledSeconds="26263.20" traveltime="12.50" overlapTraveltime="12.70" density="46.31" laneDensity="11.58" occupancy="5.79" waitingTime="0.00" timeLoss="2263.19" speed="25.21" departed="0" arrived="0" entered="2076" left="2063" laneChangedFrom="142" laneChangedTo="142"/>
        <edge id="360361373.2215" sampledSeconds="36189.88" traveltime="17.47" overlapTraveltime="17.69" density="47.02" laneDensity="11.75" occupancy="5.91" waitingTime="0.00" timeLoss="4102.70" speed="24.46" departed="0" arrived="0" entered="2063" left="2025" laneChangedFrom="239" laneChangedTo="239"/>
        <edge id="360361373.2643" sampledSeconds="39944.12" traveltime="19.70" overlapTraveltime="19.96" density="53.97" laneDensity="13.49" occupancy="6.78" waitingTime="348.50" timeLoss="9745.69" speed="20.86" departed="0" arrived="0" entered="2025" left="1960" laneChangedFrom="932" laneChangedTo="932"/>
        <edge id="360361373.463" sampledSeconds="44155.03" traveltime="20.41" overlapTraveltime="20.61" density="47.30" laneDensity="11.82" occupancy="5.95" waitingTime="0.00" timeLoss="3480.82" speed="25.41" departed="0" arrived="0" entered="2157" left="2128" laneChangedFrom="388" laneChangedTo="388"/>
        <edge id="360361373.981" sampledSeconds="43503.42" traveltime="20.39" overlapTraveltime="20.60" density="46.85" laneDensity="11.71" occupancy="5.90" waitingTime="0.00" timeLoss="3618.40" speed="25.30" departed="0" arrived="0" entered="2128" left="2101" laneChangedFrom="315" laneChangedTo="315"/>
        <edge id="4074534" sampledSeconds="2695.83" traveltime="4.86" overlapTraveltime="5.18" density="19.43" laneDensity="9.72" occupancy="4.65" waitingTime="0.00" timeLoss="125.48" speed="15.88" departed="0" arrived="0" entered="521" left="521" laneChangedFrom="41" laneChangedTo="41"/>
        <edge id="41517592" sampledSeconds="9886.07" traveltime="12.12" overlapTraveltime="12.39" density="31.03" laneDensity="15.51" occupancy="7.71" waitingTime="0.00" timeLoss="4606.41" speed="14.71" departed="0" arrived="0" entered="802" left="796" laneChangedFrom="264" laneChangedTo="264"/>
        <edge id="428960734" sampledSeconds="40514.24" traveltime="23.29" overlapTraveltime="23.53" density="47.35" laneDensity="11.84" occupancy="5.97" waitingTime="0.00" timeLoss="3088.35" speed="20.42" departed="0" arrived="1709" entered="1739" left="0" laneChangedFrom="419" laneChangedTo="419"/>
        <edge id="428960735" sampledSeconds="5628.47" traveltime="2.98" overlapTraveltime="3.24" density="51.99" laneDensity="13.00" occupancy="6.10" waitingTime="0.00" timeLoss="495.19" speed="20.16" departed="0" arrived="0" entered="1742" left="1739" laneChangedFrom="95" laneChangedTo="95"/>
        <edge id="429432523" sampledSeconds="13055.53" traveltime="7.13" overlapTraveltime="7.44" density="65.47" laneDensity="16.37" occupancy="7.97" waitingTime="0.00" timeLoss="1032.35" speed="15.57" departed="0" arrived="0" entered="1759" left="1750" laneChangedFrom="115" laneChangedTo="115"/>
        <edge id="429432524" sampledSeconds="10753.86" traveltime="9.39" overlapTraveltime="9.71" density="31.41" laneDensity="10.47" occupancy="5.17" waitingTime="0.00" timeLoss="2679.49" speed="20.11" departed="0" arrived="0" entered="1111" left="1105" laneChangedFrom="128" laneChangedTo="128"/>
        <edge id="429432526" sampledSeconds="23712.11" traveltime="29.79" overlapTraveltime="30.12" density="28.61" laneDensity="14.30" occupancy="7.20" waitingTime="0.00" timeLoss="1537.88" speed="15.46" departed="0" arrived="0" entered="794" left="778" laneChangedFrom="134" laneChangedTo="134"/>
        <edge id="429432925" sampledSeconds="916.54" traveltime="0.18" overlapTraveltime="0.52" density="192.88" laneDensity="48.22" occupancy="8.38" waitingTime="0.00" timeLoss="90.51" speed="14.95" departed="0" arrived="0" entered="1773" left="1773" laneChangedFrom="4" laneChangedTo="4"/>
        <edge id="431199180" sampledSeconds="6515.31" traveltime="3.64" overlapTraveltime="3.94" density="59.30" laneDensity="14.82" occupancy="7.03" waitingTime="6.00" timeLoss="1563.05" speed="16.79" departed="0" arrived="0" entered="1654" left="1651" laneChangedFrom="329" laneChangedTo="329"/>
        <edge id="4402237" sampledSeconds="2557.22" traveltime="4.57" overlapTraveltime="4.90" density="20.69" laneDensity="6.90" occupancy="3.28" waitingTime="4.00" timeLoss="244.42" speed="15.07" departed="0" arrived="0" entered="523" left="521" laneChangedFrom="44" laneChangedTo="44"/>
        <edge id="4402297" sampledSeconds="18368.05" traveltime="14.11" overlapTraveltime="14.30" density="28.45" laneDensity="9.48" occupancy="4.80" waitingTime="0.00" timeLoss="1519.11" speed="25.44" departed="0" arrived="0" entered="1290" left="1278" laneChangedFrom="365" laneChangedTo="365"/>
        <edge id="4404096" sampledSeconds="9578.42" traveltime="13.90" overlapTraveltime="14.22" density="24.29" laneDensity="8.10" occupancy="4.05" waitingTime="0.00" timeLoss="441.06" speed="15.76" departed="0" arrived="0" entered="678" left="669" laneChangedFrom="223" laneChangedTo="223"/>
        <edge id="4414080#0" sampledSeconds="49126.39" traveltime="26.19" overlapTraveltime="26.52" density="109.36" laneDensity="21.87" occupancy="10.96" waitingTime="13234.00" timeLoss="31956.64" speed="9.60" departed="0" arrived="0" entered="1913" left="1814" laneChangedFrom="879" laneChangedTo="879"/>
        <edge id="4414080#0.187" sampledSeconds="17185.16" traveltime="18.11" overlapTraveltime="18.31" density="20.34" laneDensity="6.78" occupancy="3.41" waitingTime="0.00" timeLoss="1084.74" speed="25.92" departed="0" arrived="0" entered="950" left="930" laneChangedFrom="302" laneChangedTo="302"/>
        <edge id="4414080#0.756" sampledSeconds="3294.92" traveltime="2.26" overlapTraveltime="2.51" density="38.25" laneDensity="9.56" occupancy="4.41" waitingTime="45.00" timeLoss="783.16" speed="21.06" departed="0" arrived="0" entered="1312" left="1309" laneChangedFrom="433" laneChangedTo="433"/>
        <edge id="4414080#0.756.47" sampledSeconds="3174.64" traveltime="2.22" overlapTraveltime="2.43" density="33.24" laneDensity="11.08" occupancy="5.13" waitingTime="0.00" timeLoss="420.27" speed="23.97" departed="0" arrived="0" entered="1309" left="1308" laneChangedFrom="65" laneChangedTo="65"/>
        <edge id="4414080#1-AddedOnRampEdge" sampledSeconds="29315.55" traveltime="13.77" overlapTraveltime="13.97" density="47.46" laneDensity="11.87" occupancy="5.93" waitingTime="0.00" timeLoss="2795.46" speed="24.93" departed="0" arrived="0" entered="2108" left="2090" laneChangedFrom="538" laneChangedTo="538"/>
        <edge id="4414080#1-AddedOnRampEdge.343" sampledSeconds="27638.09" traveltime="13.08" overlapTraveltime="13.28" density="46.28" laneDensity="11.57" occupancy="5.78" waitingTime="0.00" timeLoss="2188.04" speed="25.37" departed="0" arrived="0" entered="2090" left="2076" laneChangedFrom="270" laneChangedTo="270"/>
        <edge id="4414080#1-AddedOnRampEdge.675" sampledSeconds="19650.17" traveltime="9.29" overlapTraveltime="9.49" density="46.37" laneDensity="11.59" occupancy="5.76" waitingTime="0.00" timeLoss="1566.62" speed="25.36" departed="0" arrived="0" entered="2076" left="2067" laneChangedFrom="164" laneChangedTo="164"/>
        <edge id="457424511#3" sampledSeconds="15324.74" traveltime="25.91" overlapTraveltime="26.24" density="20.53" laneDensity="6.84" occupancy="3.47" waitingTime="0.00" timeLoss="486.51" speed="16.00" departed="1057" arrived="0" entered="0" left="1049" laneChangedFrom="282" laneChangedTo="282"/>
        <edge id="457424511#3.414" sampledSeconds="25092.34" traveltime="23.75" overlapTraveltime="24.14" density="38.03" laneDensity="12.68" occupancy="6.42" waitingTime="2.00" timeLoss="1690.79" speed="15.40" departed="0" arrived="0" entered="1049" left="1032" laneChangedFrom="249" laneChangedTo="249"/>
        <edge id="48290550" sampledSeconds="76179.93" traveltime="30.31" overlapTraveltime="30.52" density="57.07" laneDensity="14.27" occupancy="7.23" waitingTime="0.00" timeLoss="8699.29" speed="24.46" departed="0" arrived="0" entered="2526" left="2469" laneChangedFrom="640" laneChangedTo="640"/>
        <edge id="48290550-AddedOffRampEdge" sampledSeconds="15373.15" traveltime="6.78" overlapTraveltime="7.09" density="77.64" laneDensity="12.94" occupancy="6.33" waitingTime="212.00" timeLoss="6201.28" speed="16.23" departed="0" arrived="0" entered="2173" left="2162" laneChangedFrom="645" laneChangedTo="645"/>
        <edge id="48290550.1176" sampledSeconds="30307.14" traveltime="12.31" overlapTraveltime="12.51" density="55.33" laneDensity="13.83" occupancy="6.94" waitingTime="0.00" timeLoss="3172.73" speed="24.72" departed="0" arrived="0" entered="2433" left="2413" laneChangedFrom="159" laneChangedTo="159"/>
        <edge id="48290550.1480" sampledSeconds="39389.28" traveltime="16.15" overlapTraveltime="16.36" density="54.93" laneDensity="13.73" occupancy="6.92" waitingTime="0.00" timeLoss="4207.71" speed="24.67" departed="0" arrived="0" entered="2413" left="2399" laneChangedFrom="183" laneChangedTo="183"/>
        <edge id="48290550.1878" sampledSeconds="51503.83" traveltime="21.38" overlapTraveltime="21.61" density="55.68" laneDensity="13.92" occupancy="7.03" waitingTime="0.00" timeLoss="6722.80" speed="24.02" departed="0" arrived="0" entered="2399" left="2356" laneChangedFrom="233" laneChangedTo="233"/>
        <edge id="48290550.2391" sampledSeconds="75041.08" traveltime="32.03" overlapTraveltime="32.52" density="81.33" laneDensity="20.33" occupancy="10.26" waitingTime="0.00" timeLoss="31780.91" speed="15.92" departed="0" arrived="0" entered="2356" left="2251" laneChangedFrom="383" laneChangedTo="383"/>