<?xml version="1.0" encoding="UTF-8"?>

<!-- generated on Thu Apr 15 17:27:33 2021 by Eclipse SUMO sumo Version 1.8.0
<configuration xmlns:xsi="http://www.w3.org/2001/XMLSchema-instance" xsi:noNamespaceSchemaLocation="http://sumo.dlr.de/xsd/sumoConfiguration.xsd">

    <input>
        <net-file value="M50network.net.xml"/>
        <additional-files value="vtypes.add.xml,M50_routes.rou.xml,M50_emitters.emi.xml,M50_detectors.poi.xml,output.add.xml"/>
    </input>

    <output>
        <tripinfo-output value="/home/mohit/simulation/mpr_0/results/tripinfo.out.xml"/>
    </output>

    <time>
        <begin value="24300"/>
        <end value="27900"/>
        <step-length value="0.5"/>
    </time>

    <processing>
        <collision.mingap-factor value="0"/>
        <emergencydecel.warning-threshold value="5"/>
    </processing>

    <ssm_device>
        <device.ssm.probability value="1"/>
        <device.ssm.deterministic value="true"/>
        <device.ssm.measures value="TTC PET"/>
        <device.ssm.thresholds value="1.5 2"/>
        <device.ssm.trajectories value="false"/>
        <device.ssm.range value="20"/>
        <device.ssm.extratime value="0.5"/>
        <device.ssm.file value="/home/mohit/simulation/mpr_0/results/ssm.out.xml"/>
        <device.ssm.geo value="true"/>
    </ssm_device>

    <gui_only>
        <tracker-interval value="0.5"/>
    </gui_only>

</configuration>
-->

<meandata xmlns:xsi="http://www.w3.org/2001/XMLSchema-instance" xsi:noNamespaceSchemaLocation="http://sumo.dlr.de/xsd/meandata_file.xsd">
    <interval begin="24300.00" end="26100.00" id="edgedata">
        <edge id="106130759" sampledSeconds="97873.72" traveltime="45.45" overlapTraveltime="45.85" density="68.67" laneDensity="17.17" occupancy="8.77" waitingTime="0.00" timeLoss="36076.78" speed="17.38" departed="2929" arrived="0" entered="0" left="2798" laneChangedFrom="1256" laneChangedTo="1256"/>
        <edge id="106130759-AddedOffRampEdge" sampledSeconds="34737.58" traveltime="14.02" overlapTraveltime="14.45" density="154.81" laneDensity="30.96" occupancy="15.34" waitingTime="3019.50" timeLoss="23347.96" speed="8.98" departed="0" arrived="0" entered="2412" left="2396" laneChangedFrom="739" laneChangedTo="739"/>
        <edge id="106130759.1186" sampledSeconds="110577.59" traveltime="40.82" overlapTraveltime="41.35" density="138.41" laneDensity="34.60" occupancy="17.63" waitingTime="1402.82" timeLoss="67078.02" speed="10.86" departed="0" arrived="0" entered="2719" left="2630" laneChangedFrom="120" laneChangedTo="120"/>
        <edge id="106130759.1630" sampledSeconds="67930.24" traveltime="25.50" overlapTraveltime="26.09" density="158.54" laneDensity="39.64" occupancy="20.01" waitingTime="3110.05" timeLoss="44986.75" speed="9.32" departed="0" arrived="0" entered="2629" left="2576" laneChangedFrom="48" laneChangedTo="48"/>
        <edge id="106130759.1868" sampledSeconds="70485.98" traveltime="27.06" overlapTraveltime="27.72" density="170.34" laneDensity="42.59" occupancy="21.44" waitingTime="4659.92" timeLoss="48828.60" speed="8.48" departed="0" arrived="0" entered="2576" left="2508" laneChangedFrom="46" laneChangedTo="46"/>
        <edge id="106130759.2098" sampledSeconds="110464.35" traveltime="44.10" overlapTraveltime="44.81" density="181.17" laneDensity="45.29" occupancy="22.90" waitingTime="14262.21" timeLoss="79744.52" speed="7.67" departed="0" arrived="0" entered="2508" left="2434" laneChangedFrom="167" laneChangedTo="167"/>
        <edge id="106130759.2437" sampledSeconds="47788.20" traveltime="19.10" overlapTraveltime="19.71" density="176.53" laneDensity="44.13" occupancy="21.87" waitingTime="8160.45" timeLoss="34122.62" speed="7.89" departed="0" arrived="0" entered="2434" left="2415" laneChangedFrom="207" laneChangedTo="207"/>
        <edge id="106130759.791" sampledSeconds="86365.17" traveltime="30.89" overlapTraveltime="31.33" density="121.71" laneDensity="30.43" occupancy="15.49" waitingTime="117.00" timeLoss="46451.42" speed="12.75" departed="0" arrived="0" entered="2798" left="2719" laneChangedFrom="163" laneChangedTo="163"/>
        <edge id="11955830" sampledSeconds="19028.25" traveltime="17.42" overlapTraveltime="17.76" density="39.16" laneDensity="13.05" occupancy="6.53" waitingTime="0.00" timeLoss="1132.52" speed="15.49" departed="0" arrived="0" entered="1078" left="1066" laneChangedFrom="164" laneChangedTo="164"/>
        <edge id="11955831" sampledSeconds="7419.39" traveltime="7.15" overlapTraveltime="7.48" density="37.01" laneDensity="9.25" occupancy="4.52" waitingTime="0.00" timeLoss="424.25" speed="15.58" departed="0" arrived="0" entered="995" left="990" laneChangedFrom="140" laneChangedTo="140"/>
        <edge id="11959492" sampledSeconds="13894.38" traveltime="39.74" overlapTraveltime="40.34" density="26.80" laneDensity="26.80" occupancy="13.41" waitingTime="0.00" timeLoss="1909.82" speed="7.27" departed="0" arrived="0" entered="350" left="340" laneChangedFrom="0" laneChangedTo="0"/>
        <edge id="11994462" sampledSeconds="21523.07" traveltime="26.16" overlapTraveltime="26.89" density="68.18" laneDensity="34.09" occupancy="17.08" waitingTime="5.00" timeLoss="4435.43" speed="6.71" departed="0" arrived="0" entered="808" left="794" laneChangedFrom="282" laneChangedTo="282"/>
        <edge id="11994462-AddedOnRampEdge" sampledSeconds="6867.61" traveltime="7.81" overlapTraveltime="8.49" density="63.49" laneDensity="31.75" occupancy="15.05" waitingTime="0.00" timeLoss="459.30" speed="7.69" departed="0" arrived="0" entered="812" left="808" laneChangedFrom="90" laneChangedTo="90"/>
        <edge id="128189136" sampledSeconds="16643.07" traveltime="16.56" overlapTraveltime="16.87" density="36.29" laneDensity="18.14" occupancy="9.11" waitingTime="0.00" timeLoss="1262.32" speed="15.40" departed="0" arrived="0" entered="991" left="984" laneChangedFrom="157" laneChangedTo="157"/>
        <edge id="146909950#0" sampledSeconds="25111.23" traveltime="10.93" overlapTraveltime="11.71" density="218.35" laneDensity="43.67" occupancy="20.61" waitingTime="2123.50" timeLoss="18381.79" speed="5.89" departed="0" arrived="0" entered="2158" left="2137" laneChangedFrom="112" laneChangedTo="112"/>
        <edge id="146909950#1" sampledSeconds="15462.71" traveltime="13.83" overlapTraveltime="14.28" density="77.59" laneDensity="25.86" occupancy="12.57" waitingTime="555.50" timeLoss="9701.45" speed="8.11" departed="0" arrived="0" entered="1086" left="1080" laneChangedFrom="291" laneChangedTo="291"/>
        <edge id="155345296#0" sampledSeconds="4608.68" traveltime="15.97" overlapTraveltime="16.29" density="9.96" laneDensity="4.98" occupancy="2.48" waitingTime="0.00" timeLoss="109.80" speed="16.09" departed="0" arrived="0" entered="283" left="282" laneChangedFrom="147" laneChangedTo="147"/>
        <edge id="155345296#1" sampledSeconds="2352.47" traveltime="4.02" overlapTraveltime="4.35" density="21.09" laneDensity="7.03" occupancy="3.32" waitingTime="0.00" timeLoss="152.34" speed="15.43" departed="0" arrived="0" entered="542" left="540" laneChangedFrom="274" laneChangedTo="274"/>
        <edge id="16403444#0" sampledSeconds="8799.08" traveltime="16.06" overlapTraveltime="16.39" density="19.30" laneDensity="9.65" occupancy="4.84" waitingTime="0.00" timeLoss="388.50" speed="15.77" departed="0" arrived="0" entered="537" left="537" laneChangedFrom="76" laneChangedTo="76"/>
        <edge id="16403444#1" sampledSeconds="8504.81" traveltime="9.61" overlapTraveltime="9.94" density="31.51" laneDensity="10.50" occupancy="5.20" waitingTime="0.00" timeLoss="469.94" speed="15.60" departed="0" arrived="0" entered="856" left="855" laneChangedFrom="95" laneChangedTo="95"/>
        <edge id="16403446" sampledSeconds="12040.19" traveltime="10.69" overlapTraveltime="11.09" density="60.83" laneDensity="30.41" occupancy="14.93" waitingTime="18.50" timeLoss="4489.58" speed="10.38" departed="0" arrived="0" entered="1091" left="1082" laneChangedFrom="200" laneChangedTo="200"/>
        <edge id="16808971" sampledSeconds="7323.08" traveltime="22.34" overlapTraveltime="22.68" density="11.90" laneDensity="11.90" occupancy="6.01" waitingTime="0.00" timeLoss="547.36" speed="15.30" departed="0" arrived="0" entered="323" left="322" laneChangedFrom="0" laneChangedTo="0"/>
        <edge id="17516648" sampledSeconds="21016.62" traveltime="20.28" overlapTraveltime="21.46" density="129.95" laneDensity="64.97" occupancy="31.17" waitingTime="0.00" timeLoss="15013.64" speed="4.42" departed="0" arrived="0" entered="985" left="973" laneChangedFrom="4" laneChangedTo="4"/>
        <edge id="17550539" sampledSeconds="2284.31" traveltime="6.41" overlapTraveltime="6.72" density="12.76" laneDensity="12.76" occupancy="6.14" waitingTime="0.00" timeLoss="188.18" speed="15.55" departed="0" arrived="0" entered="340" left="339" laneChangedFrom="0" laneChangedTo="0"/>
        <edge id="18702678" sampledSeconds="1160.74" traveltime="4.00" overlapTraveltime="4.40" density="10.91" laneDensity="10.91" occupancy="5.15" waitingTime="0.00" timeLoss="107.03" speed="14.60" departed="0" arrived="0" entered="264" left="263" laneChangedFrom="0" laneChangedTo="0"/>
        <edge id="18702680" sampledSeconds="1327.56" traveltime="4.75" overlapTraveltime="5.08" density="10.32" laneDensity="10.32" occupancy="4.94" waitingTime="0.00" timeLoss="112.45" speed="15.10" departed="0" arrived="0" entered="263" left="261" laneChangedFrom="0" laneChangedTo="0"/>
        <edge id="18702682" sampledSeconds="1551.52" traveltime="5.52" overlapTraveltime="5.90" density="11.94" laneDensity="11.94" occupancy="5.74" waitingTime="0.00" timeLoss="99.17" speed="13.11" departed="0" arrived="0" entered="263" left="263" laneChangedFrom="0" laneChangedTo="0"/>
        <edge id="208416643" sampledSeconds="308.29" traveltime="0.70" overlapTraveltime="1.02" density="15.13" laneDensity="7.56" occupancy="2.67" waitingTime="0.00" timeLoss="7.62" speed="16.17" departed="0" arrived="0" entered="303" left="303" laneChangedFrom="0" laneChangedTo="0"/>
        <edge id="22941414" sampledSeconds="30785.16" traveltime="18.74" overlapTraveltime="19.08" density="69.60" laneDensity="34.80" occupancy="17.56" waitingTime="0.00" timeLoss="6279.72" speed="13.15" departed="0" arrived="0" entered="1623" left="1605" laneChangedFrom="15" laneChangedTo="15"/>
        <edge id="22941416#0" sampledSeconds="7447.96" traveltime="9.29" overlapTraveltime="9.70" density="35.31" laneDensity="35.31" occupancy="17.47" waitingTime="0.00" timeLoss="1710.17" speed="12.61" departed="0" arrived="0" entered="770" left="766" laneChangedFrom="0" laneChangedTo="0"/>
        <edge id="22941416#1" sampledSeconds="21569.59" traveltime="28.04" overlapTraveltime="28.41" density="33.08" laneDensity="33.08" occupancy="16.85" waitingTime="0.00" timeLoss="4637.73" speed="12.93" departed="0" arrived="0" entered="765" left="753" laneChangedFrom="0" laneChangedTo="0"/>
        <edge id="261187938" sampledSeconds="11009.67" traveltime="5.05" overlapTraveltime="5.68" density="153.03" laneDensity="38.26" occupancy="17.48" waitingTime="592.00" timeLoss="7015.39" speed="7.95" departed="0" arrived="0" entered="1944" left="1939" laneChangedFrom="95" laneChangedTo="95"/>
        <edge id="261187938-AddedOffRampEdge" sampledSeconds="20617.24" traveltime="10.22" overlapTraveltime="10.66" density="119.47" laneDensity="29.87" occupancy="14.64" waitingTime="316.80" timeLoss="11586.98" speed="9.48" departed="0" arrived="0" entered="1939" left="1929" laneChangedFrom="364" laneChangedTo="364"/>
        <edge id="261583463" sampledSeconds="1177.08" traveltime="13.06" overlapTraveltime="13.40" density="3.28" laneDensity="3.28" occupancy="1.65" waitingTime="0.00" timeLoss="64.97" speed="15.27" departed="0" arrived="0" entered="89" left="87" laneChangedFrom="0" laneChangedTo="0"/>
        <edge id="261583464" sampledSeconds="3405.98" traveltime="11.57" overlapTraveltime="11.91" density="10.74" laneDensity="10.74" occupancy="5.37" waitingTime="0.00" timeLoss="282.94" speed="15.22" departed="0" arrived="0" entered="286" left="286" laneChangedFrom="0" laneChangedTo="0"/>
        <edge id="26378010" sampledSeconds="1721.64" traveltime="5.66" overlapTraveltime="6.00" density="11.12" laneDensity="11.12" occupancy="5.39" waitingTime="0.00" timeLoss="144.75" speed="15.20" departed="0" arrived="0" entered="288" left="286" laneChangedFrom="0" laneChangedTo="0"/>
        <edge id="26380527" sampledSeconds="16091.22" traveltime="16.30" overlapTraveltime="16.72" density="36.15" laneDensity="18.07" occupancy="8.94" waitingTime="0.00" timeLoss="7113.41" speed="15.09" departed="0" arrived="0" entered="968" left="955" laneChangedFrom="151" laneChangedTo="151"/>
        <edge id="273755091#2" sampledSeconds="710.73" traveltime="0.70" overlapTraveltime="1.13" density="66.70" laneDensity="22.23" occupancy="7.13" waitingTime="98.50" timeLoss="287.40" speed="9.85" departed="0" arrived="0" entered="636" left="634" laneChangedFrom="2" laneChangedTo="2"/>
        <edge id="28001589" sampledSeconds="1836.43" traveltime="4.24" overlapTraveltime="4.58" density="15.97" laneDensity="7.99" occupancy="3.78" waitingTime="0.00" timeLoss="155.52" speed="15.06" departed="0" arrived="0" entered="401" left="400" laneChangedFrom="0" laneChangedTo="0"/>
        <edge id="28458821" sampledSeconds="18830.72" traveltime="26.89" overlapTraveltime="27.25" density="28.78" laneDensity="28.78" occupancy="14.32" waitingTime="0.00" timeLoss="3466.85" speed="13.53" departed="0" arrived="0" entered="698" left="684" laneChangedFrom="0" laneChangedTo="0"/>
        <edge id="28458824" sampledSeconds="8241.78" traveltime="28.84" overlapTraveltime="29.15" density="10.59" laneDensity="10.59" occupancy="5.39" waitingTime="0.00" timeLoss="825.98" speed="15.02" departed="0" arrived="0" entered="286" left="280" laneChangedFrom="0" laneChangedTo="0"/>
        <edge id="28458828" sampledSeconds="9574.60" traveltime="5.40" overlapTraveltime="5.74" density="66.25" laneDensity="13.25" occupancy="6.33" waitingTime="0.00" timeLoss="965.58" speed="14.88" departed="0" arrived="0" entered="1671" left="1667" laneChangedFrom="963" laneChangedTo="963"/>
        <edge id="28458895" sampledSeconds="9110.59" traveltime="5.29" overlapTraveltime="5.54" density="50.38" laneDensity="12.60" occupancy="6.07" waitingTime="0.00" timeLoss="1244.16" speed="19.05" departed="0" arrived="0" entered="1648" left="1642" laneChangedFrom="207" laneChangedTo="207"/>
        <edge id="28531510" sampledSeconds="1275.12" traveltime="3.41" overlapTraveltime="3.80" density="15.44" laneDensity="7.72" occupancy="3.55" waitingTime="3.50" timeLoss="237.20" speed="13.41" departed="0" arrived="0" entered="336" left="335" laneChangedFrom="87" laneChangedTo="87"/>
        <edge id="28531510.48" sampledSeconds="2981.91" traveltime="8.58" overlapTraveltime="8.92" density="13.47" laneDensity="13.47" occupancy="6.58" waitingTime="0.00" timeLoss="384.47" speed="14.35" departed="0" arrived="0" entered="335" left="333" laneChangedFrom="0" laneChangedTo="0"/>
        <edge id="29038677" sampledSeconds="4922.52" traveltime="17.15" overlapTraveltime="17.49" density="10.61" laneDensity="10.61" occupancy="5.31" waitingTime="0.00" timeLoss="432.44" speed="15.03" departed="0" arrived="0" entered="283" left="279" laneChangedFrom="0" laneChangedTo="0"/>
        <edge id="29332864" sampledSeconds="7671.49" traveltime="24.43" overlapTraveltime="24.80" density="11.81" laneDensity="11.81" occupancy="5.94" waitingTime="0.00" timeLoss="870.77" speed="14.76" departed="0" arrived="0" entered="311" left="306" laneChangedFrom="0" laneChangedTo="0"/>
        <edge id="293596618#1-AddedOffRampEdge" sampledSeconds="119970.84" traveltime="66.52" overlapTraveltime="67.21" density="137.06" laneDensity="34.27" occupancy="17.45" waitingTime="4437.31" timeLoss="79901.31" speed="7.31" departed="2023" arrived="0" entered="0" left="1944" laneChangedFrom="969" laneChangedTo="969"/>
        <edge id="30414032" sampledSeconds="15203.78" traveltime="21.44" overlapTraveltime="21.77" density="28.23" laneDensity="28.23" occupancy="14.08" waitingTime="0.00" timeLoss="2293.65" speed="13.98" departed="0" arrived="0" entered="703" left="695" laneChangedFrom="0" laneChangedTo="0"/>
        <edge id="319144060" sampledSeconds="12314.53" traveltime="18.17" overlapTraveltime="18.51" density="25.28" laneDensity="8.43" occupancy="4.20" waitingTime="0.00" timeLoss="1186.19" speed="14.89" departed="972" arrived="0" entered="0" left="962" laneChangedFrom="68" laneChangedTo="68"/>
        <edge id="328393125" sampledSeconds="21276.82" traveltime="12.29" overlapTraveltime="12.50" density="38.34" laneDensity="9.59" occupancy="4.83" waitingTime="0.00" timeLoss="1917.03" speed="25.07" departed="0" arrived="0" entered="1712" left="1691" laneChangedFrom="445" laneChangedTo="445"/>
        <edge id="328393125-AddedOnRampEdge" sampledSeconds="8488.74" traveltime="4.74" overlapTraveltime="4.95" density="46.72" laneDensity="9.34" occupancy="4.56" waitingTime="0.00" timeLoss="1891.96" speed="21.42" departed="0" arrived="0" entered="1716" left="1712" laneChangedFrom="340" laneChangedTo="340"/>
        <edge id="332655578" sampledSeconds="73050.21" traveltime="75.88" overlapTraveltime="76.82" density="124.25" laneDensity="62.12" occupancy="31.09" waitingTime="2.00" timeLoss="35063.87" speed="4.32" departed="0" arrived="0" entered="973" left="930" laneChangedFrom="88" laneChangedTo="88"/>
        <edge id="332655581" sampledSeconds="2766.88" traveltime="7.90" overlapTraveltime="8.18" density="13.08" laneDensity="13.08" occupancy="6.30" waitingTime="0.00" timeLoss="1266.57" speed="14.99" departed="0" arrived="0" entered="340" left="337" laneChangedFrom="0" laneChangedTo="0"/>
        <edge id="345616204#1" sampledSeconds="26928.32" traveltime="13.36" overlapTraveltime="13.56" density="45.29" laneDensity="11.32" occupancy="5.71" waitingTime="0.00" timeLoss="2767.15" speed="24.73" departed="0" arrived="0" entered="1991" left="1977" laneChangedFrom="327" laneChangedTo="327"/>
        <edge id="345616204#1-AddedOnRampEdge" sampledSeconds="9480.11" traveltime="4.52" overlapTraveltime="4.76" density="57.23" laneDensity="11.45" occupancy="5.57" waitingTime="42.50" timeLoss="2452.70" speed="20.42" departed="0" arrived="0" entered="1996" left="1991" laneChangedFrom="426" laneChangedTo="426"/>
        <edge id="345616204#1.334" sampledSeconds="25405.11" traveltime="12.71" overlapTraveltime="12.91" density="43.87" laneDensity="10.97" occupancy="5.53" waitingTime="0.00" timeLoss="2064.98" speed="25.32" departed="0" arrived="0" entered="1977" left="1957" laneChangedFrom="229" laneChangedTo="229"/>
        <edge id="345616204#1.655" sampledSeconds="29182.37" traveltime="14.87" overlapTraveltime="15.06" density="42.72" laneDensity="10.68" occupancy="5.41" waitingTime="0.00" timeLoss="2141.46" speed="25.53" departed="0" arrived="1930" entered="1957" left="0" laneChangedFrom="49" laneChangedTo="49"/>
        <edge id="360361373" sampledSeconds="37095.21" traveltime="18.39" overlapTraveltime="18.59" density="44.89" laneDensity="11.22" occupancy="5.66" waitingTime="0.00" timeLoss="3356.44" speed="24.97" departed="0" arrived="0" entered="2008" left="1986" laneChangedFrom="559" laneChangedTo="559"/>
        <edge id="360361373-AddedOffRampEdge" sampledSeconds="7616.37" traveltime="3.92" overlapTraveltime="4.13" density="45.39" laneDensity="9.08" occupancy="4.39" waitingTime="0.00" timeLoss="1022.02" speed="23.79" departed="0" arrived="0" entered="1846" left="1840" laneChangedFrom="296" laneChangedTo="296"/>
        <edge id="360361373-AddedOnRampEdge" sampledSeconds="10087.78" traveltime="4.78" overlapTraveltime="5.02" density="60.89" laneDensity="12.18" occupancy="5.93" waitingTime="36.00" timeLoss="2972.14" speed="19.36" departed="0" arrived="0" entered="2014" left="2008" laneChangedFrom="1019" laneChangedTo="1019"/>
        <edge id="360361373.1498" sampledSeconds="30617.64" traveltime="15.72" overlapTraveltime="15.92" density="42.40" laneDensity="10.60" occupancy="5.34" waitingTime="0.00" timeLoss="2165.85" speed="25.52" departed="0" arrived="0" entered="1935" left="1913" laneChangedFrom="218" laneChangedTo="218"/>
        <edge id="360361373.1899" sampledSeconds="23962.67" traveltime="12.37" overlapTraveltime="12.58" density="42.26" laneDensity="10.56" occupancy="5.30" waitingTime="0.00" timeLoss="1753.25" speed="25.46" departed="0" arrived="0" entered="1913" left="1897" laneChangedFrom="155" laneChangedTo="155"/>
        <edge id="360361373.2215" sampledSeconds="32737.73" traveltime="17.16" overlapTraveltime="17.38" density="42.53" laneDensity="10.63" occupancy="5.36" waitingTime="0.00" timeLoss="3057.19" speed="24.90" departed="0" arrived="0" entered="1897" left="1872" laneChangedFrom="220" laneChangedTo="220"/>
        <edge id="360361373.2643" sampledSeconds="34454.18" traveltime="18.29" overlapTraveltime="18.51" density="46.56" laneDensity="11.64" occupancy="5.87" waitingTime="0.00" timeLoss="6247.68" speed="22.49" departed="0" arrived="0" entered="1872" left="1847" laneChangedFrom="985" laneChangedTo="985"/>
        <edge id="360361373.463" sampledSeconds="40465.39" traveltime="20.32" overlapTraveltime="20.52" density="43.35" laneDensity="10.84" occupancy="5.47" waitingTime="0.00" timeLoss="2831.67" speed="25.53" departed="0" arrived="0" entered="1986" left="1961" laneChangedFrom="399" laneChangedTo="399"/>
        <edge id="360361373.981" sampledSeconds="39737.51" traveltime="20.22" overlapTraveltime="20.42" density="42.79" laneDensity="10.70" occupancy="5.40" waitingTime="0.00" timeLoss="2811.69" speed="25.51" departed="0" arrived="0" entered="1961" left="1935" laneChangedFrom="331" laneChangedTo="331"/>
        <edge id="4074534" sampledSeconds="2809.85" traveltime="4.90" overlapTraveltime="5.23" density="20.25" laneDensity="10.13" occupancy="4.85" waitingTime="0.00" timeLoss="132.00" speed="15.72" departed="0" arrived="0" entered="538" left="537" laneChangedFrom="38" laneChangedTo="38"/>
        <edge id="41517592" sampledSeconds="9948.78" traveltime="12.29" overlapTraveltime="12.55" density="31.22" laneDensity="15.61" occupancy="7.74" waitingTime="0.00" timeLoss="4698.90" speed="14.51" departed="0" arrived="0" entered="794" left="792" laneChangedFrom="276" laneChangedTo="276"/>
        <edge id="428960734" sampledSeconds="38288.80" traveltime="23.39" overlapTraveltime="23.63" density="44.75" laneDensity="11.19" occupancy="5.63" waitingTime="0.00" timeLoss="3017.46" speed="20.33" departed="0" arrived="1607" entered="1635" left="0" laneChangedFrom="365" laneChangedTo="365"/>
        <edge id="428960735" sampledSeconds="5326.98" traveltime="3.00" overlapTraveltime="3.25" density="49.20" laneDensity="12.30" occupancy="5.76" waitingTime="0.00" timeLoss="485.59" speed="20.05" departed="0" arrived="0" entered="1641" left="1635" laneChangedFrom="68" laneChangedTo="68"/>
        <edge id="429432523" sampledSeconds="12322.34" traveltime="7.15" overlapTraveltime="7.46" density="61.79" laneDensity="15.45" occupancy="7.51" waitingTime="0.00" timeLoss="984.35" speed="15.53" departed="0" arrived="0" entered="1656" left="1648" laneChangedFrom="122" laneChangedTo="122"/>
        <edge id="429432524" sampledSeconds="10073.73" traveltime="9.00" overlapTraveltime="9.32" density="29.42" laneDensity="9.81" occupancy="4.86" waitingTime="0.00" timeLoss="2151.31" speed="20.95" departed="0" arrived="0" entered="1083" left="1078" laneChangedFrom="114" laneChangedTo="114"/>
        <edge id="429432526" sampledSeconds="23558.34" traveltime="30.19" overlapTraveltime="30.53" density="28.42" laneDensity="14.21" occupancy="7.17" waitingTime="0.00" timeLoss="1750.33" speed="15.25" departed="0" arrived="0" entered="782" left="763" laneChangedFrom="126" laneChangedTo="126"/>
        <edge id="429432925" sampledSeconds="841.91" traveltime="0.17" overlapTraveltime="0.51" density="177.17" laneDensity="44.29" occupancy="7.69" waitingTime="0.00" timeLoss="66.17" speed="15.25" departed="0" arrived="0" entered="1666" left="1666" laneChangedFrom="6" laneChangedTo="6"/>
        <edge id="431199180" sampledSeconds="6626.12" traveltime="3.82" overlapTraveltime="4.14" density="60.31" laneDensity="15.08" occupancy="7.17" waitingTime="0.00" timeLoss="1784.70" speed="16.00" departed="0" arrived="0" entered="1604" left="1600" laneChangedFrom="279" laneChangedTo="279"/>
        <edge id="4402237" sampledSeconds="2568.59" traveltime="4.44" overlapTraveltime="4.77" density="20.78" laneDensity="6.93" occupancy="3.30" waitingTime="0.50" timeLoss="158.57" speed="15.48" departed="0" arrived="0" entered="540" left="538" laneChangedFrom="25" laneChangedTo="25"/>
        <edge id="4402297" sampledSeconds="18820.16" traveltime="14.32" overlapTraveltime="14.52" density="29.15" laneDensity="9.72" occupancy="4.92" waitingTime="0.00" timeLoss="1730.86" speed="25.06" departed="0" arrived="0" entered="1304" left="1289" laneChangedFrom="330" laneChangedTo="330"/>
        <edge id="4404096" sampledSeconds="8994.75" traveltime="13.90" overlapTraveltime="14.22" density="22.81" laneDensity="7.60" occupancy="3.79" waitingTime="0.00" timeLoss="414.10" speed="15.76" departed="0" arrived="0" entered="636" left="629" laneChangedFrom="209" laneChangedTo="209"/>
        <edge id="4414080#0" sampledSeconds="21092.36" traveltime="11.28" overlapTraveltime="11.54" density="46.95" laneDensity="9.39" occupancy="4.69" waitingTime="0.00" timeLoss="4078.66" speed="22.07" departed="0" arrived="0" entered="1840" left="1816" laneChangedFrom="550" laneChangedTo="550"/>
        <edge id="4414080#0.187" sampledSeconds="16388.42" traveltime="17.72" overlapTraveltime="17.92" density="19.39" laneDensity="6.46" occupancy="3.25" waitingTime="0.00" timeLoss="624.92" speed="26.48" departed="0" arrived="0" entered="920" left="910" laneChangedFrom="234" laneChangedTo="234"/>
        <edge id="4414080#0.756" sampledSeconds="3207.76" traveltime="2.32" overlapTraveltime="2.58" density="37.24" laneDensity="9.31" occupancy="4.30" waitingTime="51.00" timeLoss="815.91" speed="20.55" departed="0" arrived="0" entered="1246" left="1245" laneChangedFrom="387" laneChangedTo="387"/>
        <edge id="4414080#0.756.47" sampledSeconds="3075.66" traveltime="2.27" overlapTraveltime="2.47" density="32.20" laneDensity="10.73" occupancy="4.98" waitingTime="0.00" timeLoss="451.52" speed="23.52" departed="0" arrived="0" entered="1245" left="1244" laneChangedFrom="63" laneChangedTo="63"/>
        <edge id="4414080#1-AddedOnRampEdge" sampledSeconds="28456.70" traveltime="13.91" overlapTraveltime="14.11" density="46.07" laneDensity="11.52" occupancy="5.76" waitingTime="0.00" timeLoss="2971.35" speed="24.68" departed="0" arrived="0" entered="2024" left="2011" laneChangedFrom="550" laneChangedTo="550"/>
        <edge id="4414080#1-AddedOnRampEdge.343" sampledSeconds="26702.55" traveltime="13.13" overlapTraveltime="13.33" density="44.72" laneDensity="11.18" occupancy="5.59" waitingTime="0.00" timeLoss="2216.49" speed="25.27" departed="0" arrived="0" entered="2011" left="1994" laneChangedFrom="269" laneChangedTo="269"/>
        <edge id="4414080#1-AddedOnRampEdge.675" sampledSeconds="18858.93" traveltime="9.29" overlapTraveltime="9.49" density="44.50" laneDensity="11.12" occupancy="5.53" waitingTime="0.00" timeLoss="1513.19" speed="25.34" departed="0" arrived="0" entered="1994" left="1982" laneChangedFrom="156" laneChangedTo="156"/>
        <edge id="457424511#3" sampledSeconds="13906.52" traveltime="25.88" overlapTraveltime="26.21" density="18.63" laneDensity="6.21" occupancy="3.15" waitingTime="0.00" timeLoss="460.55" speed="16.01" departed="948" arrived="0" entered="0" left="942" laneChangedFrom="258" laneChangedTo="258"/>
        <edge id="457424511#3.414" sampledSeconds="22520.10" traveltime="23.74" overlapTraveltime="24.13" density="34.13" laneDensity="11.38" occupancy="5.75" waitingTime="0.00" timeLoss="1530.18" speed="15.40" departed="0" arrived="0" entered="942" left="925" laneChangedFrom="259" laneChangedTo="259"/>
        <edge id="48290550" sampledSeconds="76956.23" traveltime="30.49" overlapTraveltime="30.69" density="57.66" laneDensity="14.41" occupancy="7.30" waitingTime="0.00" timeLoss="8867.51" speed="24.33" departed="0" arrived="0" entered="2537" left="2480" laneChangedFrom="541" laneChangedTo="541"/>
        <edge id="48290550-AddedOffRampEdge" sampledSeconds="12528.11" traveltime="5.82" overlapTraveltime="6.10" density="63.27" laneDensity="10.54" occupancy="5.13" waitingTime="0.00" timeLoss="3806.46" speed="18.87" departed="0" arrived="0" entered="2058" left="2050" laneChangedFrom="454" laneChangedTo="454"/>
        <edge id="48290550.1176" sampledSeconds="30558.19" traveltime="12.37" overlapTraveltime="12.57" density="55.79" laneDensity="13.95" occupancy="7.00" waitingTime="0.00" timeLoss="3203.94" speed="24.61" departed="0" arrived="0" entered="2444" left="2418" laneChangedFrom="149" laneChangedTo="149"/>
        <edge id="48290550.1480" sampledSeconds="40727.78" traveltime="16.75" overlapTraveltime="16.98" density="56.80" laneDensity="14.20" occupancy="7.15" waitingTime="0.00" timeLoss="5520.11" speed="23.76" departed="0" arrived="0" entered="2418" left="2376" laneChangedFrom="176" laneChangedTo="176"/>
        <edge id="48290550.1878" sampledSeconds="72297.44" traveltime="30.77" overlapTraveltime="31.18" density="78.16" laneDensity="19.54" occupancy="9.86" waitingTime="0.00" timeLoss="28531.68" speed="16.65" departed="0" arrived="0" entered="2376" left="2259" laneChangedFrom="244" laneChangedTo="244"/>
        <edge id="48290550.2391" sampledSeconds="127974.35" traveltime="57.50" overlapTraveltime="58.20" density="138.69" laneDensity="34.67" occupancy="17.49" waitingTime="0.00" timeLoss="86587.81" speed="8.90" departed="0" arrived="0" entered="2259" left="2139" laneChangedFrom="225" laneChangedTo="225"/>