<?xml version="1.0" encoding="UTF-8"?>

<!-- generated on Tue Apr 13 01:30:54 2021 by Eclipse SUMO sumo Version 1.8.0
<configuration xmlns:xsi="http://www.w3.org/2001/XMLSchema-instance" xsi:noNamespaceSchemaLocation="http://sumo.dlr.de/xsd/sumoConfiguration.xsd">

    <input>
        <net-file value="M50network.net.xml"/>
        <additional-files value="vtypes.add.xml,M50_routes.rou.xml,M50_emitters.emi.xml,M50_detectors.poi.xml,output.add.xml"/>
    </input>

    <output>
        <tripinfo-output value="/home/mohit/simulation/mpr_0.7/results/tripinfo.out.xml"/>
    </output>

    <time>
        <begin value="23400"/>
        <end value="28800"/>
        <step-length value="0.5"/>
    </time>

    <processing>
        <collision.mingap-factor value="0"/>
        <emergencydecel.warning-threshold value="5"/>
    </processing>

    <ssm_device>
        <device.ssm.probability value="1"/>
        <device.ssm.deterministic value="true"/>
        <device.ssm.measures value="TTC PET"/>
        <device.ssm.thresholds value="1.5 2"/>
        <device.ssm.trajectories value="false"/>
        <device.ssm.range value="20"/>
        <device.ssm.extratime value="0.5"/>
        <device.ssm.file value="/home/mohit/simulation/mpr_0.7/results/ssm.out.xml"/>
        <device.ssm.geo value="true"/>
    </ssm_device>

    <gui_only>
        <tracker-interval value="0.5"/>
    </gui_only>

</configuration>
-->

<meandata xmlns:xsi="http://www.w3.org/2001/XMLSchema-instance" xsi:noNamespaceSchemaLocation="http://sumo.dlr.de/xsd/meandata_file.xsd">
    <interval begin="23400.00" end="25200.00" id="edgedata">
        <edge id="106130759" sampledSeconds="48119.76" traveltime="30.86" overlapTraveltime="31.06" density="33.76" laneDensity="8.44" occupancy="4.31" waitingTime="0.00" timeLoss="3496.18" speed="25.66" departed="2686" arrived="0" entered="0" left="2656" laneChangedFrom="1229" laneChangedTo="1229"/>
        <edge id="106130759-AddedOffRampEdge" sampledSeconds="32464.01" traveltime="13.64" overlapTraveltime="14.06" density="144.68" laneDensity="28.94" occupancy="14.37" waitingTime="2310.50" timeLoss="21572.62" speed="9.23" departed="0" arrived="0" entered="2322" left="2299" laneChangedFrom="806" laneChangedTo="806"/>
        <edge id="106130759.1186" sampledSeconds="57478.59" traveltime="21.87" overlapTraveltime="22.17" density="71.95" laneDensity="17.99" occupancy="9.15" waitingTime="71.00" timeLoss="15456.94" speed="20.25" departed="0" arrived="0" entered="2633" left="2545" laneChangedFrom="305" laneChangedTo="305"/>
        <edge id="106130759.1630" sampledSeconds="38531.26" traveltime="14.95" overlapTraveltime="15.30" density="89.93" laneDensity="22.48" occupancy="11.34" waitingTime="466.00" timeLoss="16428.88" speed="15.89" departed="0" arrived="0" entered="2545" left="2493" laneChangedFrom="174" laneChangedTo="174"/>
        <edge id="106130759.1868" sampledSeconds="45055.31" traveltime="17.80" overlapTraveltime="18.27" density="108.89" laneDensity="27.22" occupancy="13.74" waitingTime="2302.00" timeLoss="24128.42" speed="12.87" departed="0" arrived="0" entered="2493" left="2442" laneChangedFrom="186" laneChangedTo="186"/>
        <edge id="106130759.2098" sampledSeconds="82091.57" traveltime="33.78" overlapTraveltime="34.35" density="134.64" laneDensity="33.66" occupancy="17.14" waitingTime="10736.50" timeLoss="52436.55" speed="10.01" departed="0" arrived="0" entered="2442" left="2355" laneChangedFrom="464" laneChangedTo="464"/>
        <edge id="106130759.2437" sampledSeconds="38211.03" traveltime="15.85" overlapTraveltime="16.36" density="141.16" laneDensity="35.29" occupancy="17.60" waitingTime="5086.00" timeLoss="25106.02" speed="9.51" departed="0" arrived="0" entered="2355" left="2322" laneChangedFrom="231" laneChangedTo="231"/>
        <edge id="106130759.791" sampledSeconds="42113.07" traveltime="15.71" overlapTraveltime="15.92" density="59.35" laneDensity="14.84" occupancy="7.53" waitingTime="0.00" timeLoss="3972.94" speed="25.08" departed="0" arrived="0" entered="2656" left="2633" laneChangedFrom="395" laneChangedTo="395"/>
        <edge id="11955830" sampledSeconds="21551.53" traveltime="19.34" overlapTraveltime="19.72" density="44.36" laneDensity="14.79" occupancy="7.39" waitingTime="235.50" timeLoss="3456.26" speed="13.94" departed="0" arrived="0" entered="1100" left="1085" laneChangedFrom="318" laneChangedTo="318"/>
        <edge id="11955831" sampledSeconds="7129.73" traveltime="7.02" overlapTraveltime="7.34" density="35.56" laneDensity="8.89" occupancy="4.34" waitingTime="0.00" timeLoss="323.44" speed="15.86" departed="0" arrived="0" entered="976" left="969" laneChangedFrom="95" laneChangedTo="95"/>
        <edge id="11959492" sampledSeconds="11866.76" traveltime="37.08" overlapTraveltime="37.68" density="22.89" laneDensity="22.89" occupancy="11.43" waitingTime="0.00" timeLoss="875.23" speed="7.78" departed="0" arrived="0" entered="319" left="310" laneChangedFrom="0" laneChangedTo="0"/>
        <edge id="11994462" sampledSeconds="18556.33" traveltime="22.40" overlapTraveltime="23.04" density="58.78" laneDensity="29.39" occupancy="14.69" waitingTime="0.00" timeLoss="1429.76" speed="7.84" departed="0" arrived="0" entered="811" left="801" laneChangedFrom="217" laneChangedTo="217"/>
        <edge id="11994462-AddedOnRampEdge" sampledSeconds="6803.15" traveltime="7.72" overlapTraveltime="8.37" density="62.90" laneDensity="31.45" occupancy="14.91" waitingTime="0.00" timeLoss="389.41" speed="7.80" departed="0" arrived="0" entered="815" left="811" laneChangedFrom="238" laneChangedTo="238"/>
        <edge id="128189136" sampledSeconds="14158.60" traveltime="15.89" overlapTraveltime="16.19" density="30.87" laneDensity="15.44" occupancy="7.71" waitingTime="0.00" timeLoss="588.61" speed="16.05" departed="0" arrived="0" entered="881" left="870" laneChangedFrom="133" laneChangedTo="133"/>
        <edge id="146909950#0" sampledSeconds="23876.19" traveltime="10.69" overlapTraveltime="11.40" density="207.62" laneDensity="41.52" occupancy="19.66" waitingTime="3231.50" timeLoss="17341.71" speed="6.05" departed="0" arrived="0" entered="2110" left="2082" laneChangedFrom="195" laneChangedTo="197"/>
        <edge id="146909950#1" sampledSeconds="21482.13" traveltime="20.25" overlapTraveltime="20.83" density="107.79" laneDensity="35.93" occupancy="17.64" waitingTime="1596.50" timeLoss="16022.65" speed="5.56" departed="0" arrived="0" entered="1041" left="1026" laneChangedFrom="364" laneChangedTo="364"/>
        <edge id="155345296#0" sampledSeconds="4411.76" traveltime="15.70" overlapTraveltime="16.01" density="9.54" laneDensity="4.77" occupancy="2.39" waitingTime="0.00" timeLoss="67.15" speed="16.37" departed="0" arrived="0" entered="277" left="271" laneChangedFrom="134" laneChangedTo="134"/>
        <edge id="155345296#1" sampledSeconds="1977.43" traveltime="3.85" overlapTraveltime="4.17" density="17.72" laneDensity="5.91" occupancy="2.79" waitingTime="0.00" timeLoss="64.86" speed="16.09" departed="0" arrived="0" entered="475" left="473" laneChangedFrom="188" laneChangedTo="188"/>
        <edge id="16403444#0" sampledSeconds="7336.26" traveltime="15.62" overlapTraveltime="15.94" density="16.09" laneDensity="8.05" occupancy="4.03" waitingTime="0.00" timeLoss="195.88" speed="16.21" departed="0" arrived="0" entered="466" left="456" laneChangedFrom="72" laneChangedTo="72"/>
        <edge id="16403444#1" sampledSeconds="7876.77" traveltime="9.37" overlapTraveltime="9.69" density="29.18" laneDensity="9.73" occupancy="4.83" waitingTime="0.00" timeLoss="298.31" speed="16.00" departed="0" arrived="0" entered="816" left="807" laneChangedFrom="34" laneChangedTo="34"/>
        <edge id="16403446" sampledSeconds="13928.12" traveltime="12.60" overlapTraveltime="13.11" density="70.36" laneDensity="35.18" occupancy="17.30" waitingTime="68.50" timeLoss="6577.91" speed="8.78" departed="0" arrived="0" entered="1069" left="1059" laneChangedFrom="146" laneChangedTo="146"/>
        <edge id="16808971" sampledSeconds="8100.95" traveltime="21.89" overlapTraveltime="22.21" density="13.16" laneDensity="13.16" occupancy="6.68" waitingTime="0.00" timeLoss="479.23" speed="15.63" departed="0" arrived="0" entered="367" left="362" laneChangedFrom="0" laneChangedTo="0"/>
        <edge id="17516648" sampledSeconds="23205.04" traveltime="23.10" overlapTraveltime="24.38" density="143.48" laneDensity="71.74" occupancy="34.27" waitingTime="1925.02" timeLoss="17414.33" speed="3.89" departed="0" arrived="0" entered="961" left="947" laneChangedFrom="72" laneChangedTo="72"/>
        <edge id="17550539" sampledSeconds="2077.67" traveltime="6.29" overlapTraveltime="6.60" density="11.60" laneDensity="11.60" occupancy="5.56" waitingTime="0.00" timeLoss="152.90" speed="15.84" departed="0" arrived="0" entered="315" left="314" laneChangedFrom="0" laneChangedTo="0"/>
        <edge id="18702678" sampledSeconds="914.02" traveltime="4.03" overlapTraveltime="4.42" density="8.59" laneDensity="8.59" occupancy="4.06" waitingTime="0.00" timeLoss="94.03" speed="14.55" departed="0" arrived="0" entered="208" left="206" laneChangedFrom="0" laneChangedTo="0"/>
        <edge id="18702680" sampledSeconds="1040.25" traveltime="4.75" overlapTraveltime="5.08" density="8.08" laneDensity="8.08" occupancy="3.87" waitingTime="0.00" timeLoss="96.08" speed="15.10" departed="0" arrived="0" entered="205" left="204" laneChangedFrom="0" laneChangedTo="0"/>
        <edge id="18702682" sampledSeconds="1192.88" traveltime="5.42" overlapTraveltime="5.79" density="9.18" laneDensity="9.18" occupancy="4.41" waitingTime="0.00" timeLoss="64.16" speed="13.35" departed="0" arrived="0" entered="206" left="205" laneChangedFrom="0" laneChangedTo="0"/>
        <edge id="208416643" sampledSeconds="286.14" traveltime="0.71" overlapTraveltime="1.03" density="14.04" laneDensity="7.02" occupancy="2.48" waitingTime="0.00" timeLoss="7.05" speed="16.01" departed="0" arrived="0" entered="279" left="279" laneChangedFrom="1" laneChangedTo="1"/>
        <edge id="22941414" sampledSeconds="33671.17" traveltime="20.54" overlapTraveltime="20.92" density="76.12" laneDensity="38.06" occupancy="19.20" waitingTime="285.50" timeLoss="9456.84" speed="11.99" departed="0" arrived="0" entered="1618" left="1602" laneChangedFrom="56" laneChangedTo="56"/>
        <edge id="22941416#0" sampledSeconds="6967.14" traveltime="8.72" overlapTraveltime="9.10" density="33.03" laneDensity="33.03" occupancy="16.32" waitingTime="0.00" timeLoss="1329.38" speed="13.45" departed="0" arrived="0" entered="768" left="764" laneChangedFrom="0" laneChangedTo="0"/>
        <edge id="22941416#1" sampledSeconds="19899.55" traveltime="25.88" overlapTraveltime="26.24" density="30.52" laneDensity="30.52" occupancy="15.52" waitingTime="0.00" timeLoss="3249.74" speed="14.00" departed="0" arrived="0" entered="764" left="752" laneChangedFrom="0" laneChangedTo="0"/>
        <edge id="261187938" sampledSeconds="12983.19" traveltime="5.98" overlapTraveltime="6.77" density="180.46" laneDensity="45.11" occupancy="20.48" waitingTime="1618.50" timeLoss="9059.80" speed="6.67" departed="0" arrived="0" entered="1923" left="1915" laneChangedFrom="73" laneChangedTo="76"/>
        <edge id="261187938-AddedOffRampEdge" sampledSeconds="24907.99" traveltime="12.54" overlapTraveltime="13.05" density="144.34" laneDensity="36.08" occupancy="17.67" waitingTime="1500.50" timeLoss="16055.46" speed="7.74" departed="0" arrived="0" entered="1918" left="1906" laneChangedFrom="336" laneChangedTo="336"/>
        <edge id="261583463" sampledSeconds="900.09" traveltime="12.44" overlapTraveltime="12.77" density="2.51" laneDensity="2.51" occupancy="1.25" waitingTime="0.00" timeLoss="22.83" speed="16.02" departed="0" arrived="0" entered="71" left="69" laneChangedFrom="0" laneChangedTo="0"/>
        <edge id="261583464" sampledSeconds="3037.87" traveltime="11.10" overlapTraveltime="11.42" density="9.58" laneDensity="9.58" occupancy="4.76" waitingTime="0.00" timeLoss="130.31" speed="15.87" departed="0" arrived="0" entered="266" left="266" laneChangedFrom="0" laneChangedTo="0"/>
        <edge id="26378010" sampledSeconds="1614.88" traveltime="5.73" overlapTraveltime="6.05" density="10.43" laneDensity="10.43" occupancy="5.02" waitingTime="0.00" timeLoss="147.49" speed="15.06" departed="0" arrived="0" entered="267" left="266" laneChangedFrom="0" laneChangedTo="0"/>
        <edge id="26380527" sampledSeconds="9780.36" traveltime="11.88" overlapTraveltime="12.24" density="21.97" laneDensity="10.98" occupancy="5.40" waitingTime="1.00" timeLoss="2323.80" speed="20.61" departed="0" arrived="0" entered="802" left="797" laneChangedFrom="74" laneChangedTo="74"/>
        <edge id="273755091#2" sampledSeconds="526.95" traveltime="0.63" overlapTraveltime="1.02" density="49.45" laneDensity="16.48" occupancy="5.03" waitingTime="45.50" timeLoss="183.28" speed="10.86" departed="0" arrived="0" entered="519" left="517" laneChangedFrom="1" laneChangedTo="1"/>
        <edge id="28001589" sampledSeconds="1354.52" traveltime="4.00" overlapTraveltime="4.33" density="11.78" laneDensity="5.89" occupancy="2.79" waitingTime="0.50" timeLoss="52.52" speed="15.94" departed="0" arrived="0" entered="313" left="313" laneChangedFrom="7" laneChangedTo="7"/>
        <edge id="28458821" sampledSeconds="14172.79" traveltime="23.99" overlapTraveltime="24.32" density="21.66" laneDensity="21.66" occupancy="10.73" waitingTime="0.00" timeLoss="1224.98" speed="15.16" departed="0" arrived="0" entered="589" left="578" laneChangedFrom="0" laneChangedTo="0"/>
        <edge id="28458824" sampledSeconds="7288.30" traveltime="27.33" overlapTraveltime="27.65" density="9.36" laneDensity="9.36" occupancy="4.73" waitingTime="0.00" timeLoss="371.24" speed="15.83" departed="0" arrived="0" entered="266" left="262" laneChangedFrom="0" laneChangedTo="0"/>
        <edge id="28458828" sampledSeconds="9182.51" traveltime="5.56" overlapTraveltime="5.95" density="63.54" laneDensity="12.71" occupancy="6.07" waitingTime="86.00" timeLoss="1255.95" speed="14.34" departed="0" arrived="0" entered="1544" left="1540" laneChangedFrom="853" laneChangedTo="853"/>
        <edge id="28458895" sampledSeconds="8652.61" traveltime="5.44" overlapTraveltime="5.70" density="47.85" laneDensity="11.96" occupancy="5.77" waitingTime="0.00" timeLoss="1415.38" speed="18.53" departed="0" arrived="0" entered="1523" left="1515" laneChangedFrom="207" laneChangedTo="207"/>
        <edge id="28531510" sampledSeconds="1051.62" traveltime="3.51" overlapTraveltime="3.89" density="12.73" laneDensity="6.37" occupancy="2.92" waitingTime="13.50" timeLoss="222.43" speed="13.08" departed="0" arrived="0" entered="270" left="270" laneChangedFrom="69" laneChangedTo="69"/>
        <edge id="28531510.48" sampledSeconds="2179.88" traveltime="7.80" overlapTraveltime="8.11" density="9.85" laneDensity="9.85" occupancy="4.78" waitingTime="0.00" timeLoss="105.39" speed="15.79" departed="0" arrived="0" entered="270" left="267" laneChangedFrom="0" laneChangedTo="0"/>
        <edge id="29038677" sampledSeconds="4948.80" traveltime="16.57" overlapTraveltime="16.89" density="10.67" laneDensity="10.67" occupancy="5.30" waitingTime="0.00" timeLoss="328.05" speed="15.55" departed="0" arrived="0" entered="294" left="291" laneChangedFrom="0" laneChangedTo="0"/>
        <edge id="29332864" sampledSeconds="5460.49" traveltime="22.50" overlapTraveltime="22.82" density="8.40" laneDensity="8.40" occupancy="4.23" waitingTime="0.00" timeLoss="228.45" speed="16.04" departed="0" arrived="0" entered="241" left="238" laneChangedFrom="0" laneChangedTo="0"/>
        <edge id="293596618#1-AddedOffRampEdge" sampledSeconds="153598.95" traveltime="93.31" overlapTraveltime="94.09" density="175.48" laneDensity="43.87" occupancy="22.32" waitingTime="26241.00" timeLoss="117268.72" speed="5.22" departed="2039" arrived="0" entered="0" left="1924" laneChangedFrom="1148" laneChangedTo="1148"/>
        <edge id="30414032" sampledSeconds="13009.49" traveltime="19.98" overlapTraveltime="20.31" density="24.15" laneDensity="24.15" occupancy="12.01" waitingTime="0.00" timeLoss="1217.17" speed="14.98" departed="0" arrived="0" entered="643" left="636" laneChangedFrom="0" laneChangedTo="0"/>
        <edge id="319144060" sampledSeconds="8860.26" traveltime="17.25" overlapTraveltime="17.57" density="18.19" laneDensity="6.06" occupancy="3.01" waitingTime="0.00" timeLoss="466.30" speed="15.69" departed="854" arrived="0" entered="0" left="851" laneChangedFrom="59" laneChangedTo="59"/>
        <edge id="328393125" sampledSeconds="23129.11" traveltime="12.77" overlapTraveltime="12.98" density="41.68" laneDensity="10.42" occupancy="5.24" waitingTime="2.00" timeLoss="2890.76" speed="24.15" departed="0" arrived="0" entered="1794" left="1773" laneChangedFrom="437" laneChangedTo="437"/>
        <edge id="328393125-AddedOnRampEdge" sampledSeconds="10717.78" traveltime="5.66" overlapTraveltime="5.96" density="58.99" laneDensity="11.80" occupancy="5.76" waitingTime="114.50" timeLoss="3803.58" speed="17.80" departed="0" arrived="0" entered="1804" left="1796" laneChangedFrom="490" laneChangedTo="490"/>
        <edge id="332655578" sampledSeconds="69967.48" traveltime="75.12" overlapTraveltime="75.86" density="119.01" laneDensity="59.50" occupancy="29.65" waitingTime="229.50" timeLoss="33450.48" speed="4.37" departed="0" arrived="0" entered="947" left="902" laneChangedFrom="194" laneChangedTo="194"/>
        <edge id="332655581" sampledSeconds="2419.47" traveltime="7.59" overlapTraveltime="7.86" density="11.44" laneDensity="11.44" occupancy="5.51" waitingTime="0.00" timeLoss="1049.39" speed="15.60" departed="0" arrived="0" entered="310" left="307" laneChangedFrom="0" laneChangedTo="0"/>
        <edge id="345616204#1" sampledSeconds="26814.87" traveltime="13.26" overlapTraveltime="13.46" density="45.10" laneDensity="11.28" occupancy="5.67" waitingTime="0.00" timeLoss="2607.62" speed="24.92" departed="0" arrived="0" entered="2003" left="1981" laneChangedFrom="308" laneChangedTo="308"/>
        <edge id="345616204#1-AddedOnRampEdge" sampledSeconds="10037.40" traveltime="4.73" overlapTraveltime="5.00" density="60.59" laneDensity="12.12" occupancy="5.89" waitingTime="105.00" timeLoss="2973.81" speed="19.43" departed="0" arrived="0" entered="2011" left="2004" laneChangedFrom="380" laneChangedTo="380"/>
        <edge id="345616204#1.334" sampledSeconds="24951.84" traveltime="12.47" overlapTraveltime="12.67" density="43.09" laneDensity="10.77" occupancy="5.42" waitingTime="0.00" timeLoss="1637.12" speed="25.80" departed="0" arrived="0" entered="1981" left="1960" laneChangedFrom="208" laneChangedTo="208"/>
        <edge id="345616204#1.655" sampledSeconds="28953.41" traveltime="14.69" overlapTraveltime="14.88" density="42.39" laneDensity="10.60" occupancy="5.36" waitingTime="0.00" timeLoss="1851.45" speed="25.84" departed="0" arrived="1944" entered="1960" left="0" laneChangedFrom="39" laneChangedTo="39"/>
        <edge id="360361373" sampledSeconds="33326.34" traveltime="18.47" overlapTraveltime="18.66" density="40.33" laneDensity="10.08" occupancy="5.08" waitingTime="0.00" timeLoss="3303.07" speed="24.88" departed="0" arrived="0" entered="1796" left="1774" laneChangedFrom="620" laneChangedTo="620"/>
        <edge id="360361373-AddedOffRampEdge" sampledSeconds="12565.94" traveltime="7.21" overlapTraveltime="7.64" density="74.88" laneDensity="14.98" occupancy="7.25" waitingTime="1784.50" timeLoss="6717.65" speed="12.87" departed="0" arrived="0" entered="1655" left="1634" laneChangedFrom="333" laneChangedTo="333"/>
        <edge id="360361373-AddedOnRampEdge" sampledSeconds="10981.98" traveltime="5.76" overlapTraveltime="6.09" density="66.29" laneDensity="13.26" occupancy="6.46" waitingTime="190.00" timeLoss="4641.23" speed="15.94" departed="0" arrived="0" entered="1808" left="1797" laneChangedFrom="1090" laneChangedTo="1090"/>
        <edge id="360361373.1498" sampledSeconds="27051.99" traveltime="15.53" overlapTraveltime="15.73" density="37.46" laneDensity="9.37" occupancy="4.71" waitingTime="0.00" timeLoss="1767.09" speed="25.83" departed="0" arrived="0" entered="1733" left="1710" laneChangedFrom="249" laneChangedTo="249"/>
        <edge id="360361373.1899" sampledSeconds="21167.61" traveltime="12.23" overlapTraveltime="12.43" density="37.33" laneDensity="9.33" occupancy="4.68" waitingTime="0.00" timeLoss="1442.04" speed="25.76" departed="0" arrived="0" entered="1710" left="1698" laneChangedFrom="172" laneChangedTo="172"/>
        <edge id="360361373.2215" sampledSeconds="28458.70" traveltime="16.62" overlapTraveltime="16.82" density="36.97" laneDensity="9.24" occupancy="4.65" waitingTime="0.00" timeLoss="1973.10" speed="25.73" departed="0" arrived="0" entered="1698" left="1686" laneChangedFrom="188" laneChangedTo="188"/>
        <edge id="360361373.2643" sampledSeconds="30186.53" traveltime="17.73" overlapTraveltime="18.02" density="40.79" laneDensity="10.20" occupancy="5.12" waitingTime="33.00" timeLoss="4969.67" speed="23.10" departed="0" arrived="0" entered="1686" left="1657" laneChangedFrom="574" laneChangedTo="574"/>
        <edge id="360361373.463" sampledSeconds="35388.08" traveltime="19.86" overlapTraveltime="20.06" density="37.91" laneDensity="9.48" occupancy="4.78" waitingTime="0.00" timeLoss="1943.04" speed="26.11" departed="0" arrived="0" entered="1774" left="1755" laneChangedFrom="426" laneChangedTo="426"/>
        <edge id="360361373.981" sampledSeconds="35110.16" traveltime="19.91" overlapTraveltime="20.11" density="37.81" laneDensity="9.45" occupancy="4.77" waitingTime="0.00" timeLoss="2176.18" speed="25.91" departed="0" arrived="0" entered="1755" left="1733" laneChangedFrom="344" laneChangedTo="344"/>
        <edge id="4074534" sampledSeconds="2373.43" traveltime="4.77" overlapTraveltime="5.09" density="17.11" laneDensity="8.55" occupancy="4.10" waitingTime="0.00" timeLoss="68.86" speed="16.16" departed="0" arrived="0" entered="468" left="466" laneChangedFrom="40" laneChangedTo="40"/>
        <edge id="41517592" sampledSeconds="9101.57" traveltime="11.19" overlapTraveltime="11.43" density="28.57" laneDensity="14.28" occupancy="7.09" waitingTime="0.00" timeLoss="3838.52" speed="15.94" departed="0" arrived="0" entered="801" left="794" laneChangedFrom="285" laneChangedTo="285"/>
        <edge id="428960734" sampledSeconds="34324.83" traveltime="22.65" overlapTraveltime="22.89" density="40.11" laneDensity="10.03" occupancy="5.05" waitingTime="0.00" timeLoss="1808.51" speed="20.99" departed="0" arrived="1493" entered="1513" left="0" laneChangedFrom="428" laneChangedTo="428"/>
        <edge id="428960735" sampledSeconds="4913.86" traveltime="3.00" overlapTraveltime="3.25" density="45.39" laneDensity="11.35" occupancy="5.31" waitingTime="0.00" timeLoss="457.50" speed="20.09" departed="0" arrived="0" entered="1515" left="1513" laneChangedFrom="115" laneChangedTo="115"/>
        <edge id="429432523" sampledSeconds="11115.47" traveltime="6.97" overlapTraveltime="7.28" density="55.74" laneDensity="13.93" occupancy="6.77" waitingTime="0.00" timeLoss="665.34" speed="15.92" departed="0" arrived="0" entered="1531" left="1523" laneChangedFrom="109" laneChangedTo="109"/>
        <edge id="429432524" sampledSeconds="11380.18" traveltime="9.97" overlapTraveltime="10.29" density="33.24" laneDensity="11.08" occupancy="5.47" waitingTime="0.00" timeLoss="3336.09" speed="18.98" departed="0" arrived="0" entered="1108" left="1100" laneChangedFrom="166" laneChangedTo="166"/>
        <edge id="429432526" sampledSeconds="23310.72" traveltime="29.49" overlapTraveltime="29.82" density="28.13" laneDensity="14.06" occupancy="7.09" waitingTime="0.00" timeLoss="1362.40" speed="15.61" departed="0" arrived="0" entered="791" left="776" laneChangedFrom="107" laneChangedTo="107"/>
        <edge id="429432925" sampledSeconds="811.34" traveltime="0.18" overlapTraveltime="0.53" density="170.74" laneDensity="42.68" occupancy="7.41" waitingTime="0.00" timeLoss="97.06" speed="14.62" departed="0" arrived="0" entered="1539" left="1539" laneChangedFrom="5" laneChangedTo="5"/>
        <edge id="431199180" sampledSeconds="7002.79" traveltime="4.06" overlapTraveltime="4.38" density="63.74" laneDensity="15.93" occupancy="7.57" waitingTime="4.00" timeLoss="2213.41" speed="15.12" departed="0" arrived="0" entered="1602" left="1598" laneChangedFrom="209" laneChangedTo="209"/>
        <edge id="4402237" sampledSeconds="2279.00" traveltime="4.52" overlapTraveltime="4.84" density="18.44" laneDensity="6.15" occupancy="2.94" waitingTime="12.00" timeLoss="190.92" speed="15.25" departed="0" arrived="0" entered="473" left="468" laneChangedFrom="50" laneChangedTo="50"/>
        <edge id="4402297" sampledSeconds="17745.30" traveltime="14.33" overlapTraveltime="14.53" density="27.48" laneDensity="9.16" occupancy="4.63" waitingTime="0.00" timeLoss="1709.80" speed="25.05" departed="0" arrived="0" entered="1229" left="1217" laneChangedFrom="423" laneChangedTo="423"/>
        <edge id="4404096" sampledSeconds="7570.35" traveltime="13.59" overlapTraveltime="13.91" density="19.20" laneDensity="6.40" occupancy="3.19" waitingTime="0.00" timeLoss="175.71" speed="16.12" departed="0" arrived="0" entered="546" left="543" laneChangedFrom="184" laneChangedTo="184"/>
        <edge id="4414080#0" sampledSeconds="47238.00" traveltime="29.05" overlapTraveltime="29.39" density="105.16" laneDensity="21.03" occupancy="10.59" waitingTime="12320.00" timeLoss="32382.58" speed="8.66" departed="0" arrived="0" entered="1633" left="1583" laneChangedFrom="1234" laneChangedTo="1234"/>
        <edge id="4414080#0.187" sampledSeconds="15056.91" traveltime="18.11" overlapTraveltime="18.30" density="17.82" laneDensity="5.94" occupancy="2.97" waitingTime="0.00" timeLoss="958.72" speed="25.93" departed="0" arrived="0" entered="828" left="820" laneChangedFrom="407" laneChangedTo="407"/>
        <edge id="4414080#0.756" sampledSeconds="2774.44" traveltime="2.22" overlapTraveltime="2.46" density="32.21" laneDensity="8.05" occupancy="3.71" waitingTime="37.00" timeLoss="617.04" speed="21.50" departed="0" arrived="0" entered="1127" left="1127" laneChangedFrom="355" laneChangedTo="355"/>
        <edge id="4414080#0.756.47" sampledSeconds="2682.87" traveltime="2.18" overlapTraveltime="2.39" density="28.09" laneDensity="9.36" occupancy="4.33" waitingTime="0.00" timeLoss="317.81" speed="24.38" departed="0" arrived="0" entered="1126" left="1125" laneChangedFrom="37" laneChangedTo="37"/>
        <edge id="4414080#1-AddedOnRampEdge" sampledSeconds="26001.67" traveltime="13.88" overlapTraveltime="14.08" density="42.10" laneDensity="10.52" occupancy="5.26" waitingTime="0.00" timeLoss="2720.41" speed="24.73" departed="0" arrived="0" entered="1860" left="1832" laneChangedFrom="542" laneChangedTo="542"/>
        <edge id="4414080#1-AddedOnRampEdge.343" sampledSeconds="23754.02" traveltime="12.82" overlapTraveltime="13.02" density="39.78" laneDensity="9.95" occupancy="4.97" waitingTime="0.00" timeLoss="1515.12" speed="25.87" departed="0" arrived="0" entered="1832" left="1815" laneChangedFrom="331" laneChangedTo="331"/>
        <edge id="4414080#1-AddedOnRampEdge.675" sampledSeconds="16829.30" traveltime="9.12" overlapTraveltime="9.31" density="39.71" laneDensity="9.93" occupancy="4.93" waitingTime="0.00" timeLoss="1100.08" speed="25.83" departed="0" arrived="0" entered="1815" left="1800" laneChangedFrom="188" laneChangedTo="188"/>
        <edge id="457424511#3" sampledSeconds="11173.87" traveltime="25.52" overlapTraveltime="25.84" density="14.97" laneDensity="4.99" occupancy="2.53" waitingTime="0.00" timeLoss="223.46" speed="16.25" departed="805" arrived="0" entered="0" left="799" laneChangedFrom="258" laneChangedTo="258"/>
        <edge id="457424511#3.414" sampledSeconds="18540.44" traveltime="22.99" overlapTraveltime="23.39" density="28.10" laneDensity="9.37" occupancy="4.72" waitingTime="6.50" timeLoss="791.05" speed="15.89" departed="0" arrived="0" entered="799" left="787" laneChangedFrom="282" laneChangedTo="282"/>
        <edge id="48290550" sampledSeconds="71367.42" traveltime="29.72" overlapTraveltime="29.92" density="53.47" laneDensity="13.37" occupancy="6.75" waitingTime="0.00" timeLoss="6992.92" speed="24.95" departed="0" arrived="0" entered="2411" left="2364" laneChangedFrom="733" laneChangedTo="734"/>
        <edge id="48290550-AddedOffRampEdge" sampledSeconds="23040.96" traveltime="10.28" overlapTraveltime="10.63" density="116.36" laneDensity="19.39" occupancy="9.55" waitingTime="988.00" timeLoss="13878.66" speed="10.83" departed="0" arrived="0" entered="2179" left="2158" laneChangedFrom="1151" laneChangedTo="1151"/>
        <edge id="48290550.1176" sampledSeconds="28561.18" traveltime="12.05" overlapTraveltime="12.25" density="52.14" laneDensity="13.04" occupancy="6.53" waitingTime="0.00" timeLoss="2480.31" speed="25.26" departed="0" arrived="0" entered="2344" left="2322" laneChangedFrom="210" laneChangedTo="210"/>
        <edge id="48290550.1480" sampledSeconds="36907.73" traveltime="15.77" overlapTraveltime="15.97" density="51.47" laneDensity="12.87" occupancy="6.47" waitingTime="0.00" timeLoss="3191.90" speed="25.27" departed="0" arrived="0" entered="2322" left="2302" laneChangedFrom="232" laneChangedTo="232"/>
        <edge id="48290550.1878" sampledSeconds="46798.86" traveltime="20.33" overlapTraveltime="20.53" density="50.59" laneDensity="12.65" occupancy="6.38" waitingTime="0.00" timeLoss="4025.20" speed="25.28" departed="0" arrived="0" entered="2302" left="2260" laneChangedFrom="273" laneChangedTo="273"/>
        <edge id="48290550.2391" sampledSeconds="50198.01" traveltime="22.08" overlapTraveltime="22.38" density="54.40" laneDensity="13.60" occupancy="6.85" waitingTime="0.50" timeLoss="8198.46" speed="23.14" departed="0" arrived="0" entered="2260" left="2221" laneChangedFrom="472" laneChangedTo="472"/>