<?xml version="1.0" encoding="UTF-8"?>

<!-- generated on Thu Apr 15 18:22:34 2021 by Eclipse SUMO sumo Version 1.8.0
<configuration xmlns:xsi="http://www.w3.org/2001/XMLSchema-instance" xsi:noNamespaceSchemaLocation="http://sumo.dlr.de/xsd/sumoConfiguration.xsd">

    <input>
        <net-file value="M50network.net.xml"/>
        <additional-files value="vtypes.add.xml,M50_routes.rou.xml,M50_emitters.emi.xml,M50_detectors.poi.xml,output.add.xml"/>
    </input>

    <output>
        <tripinfo-output value="/home/mohit/simulation/mpr_0.2/results/tripinfo.out.xml"/>
    </output>

    <time>
        <begin value="25000"/>
        <end value="27200"/>
        <step-length value="0.5"/>
    </time>

    <processing>
        <collision.mingap-factor value="0"/>
        <emergencydecel.warning-threshold value="5"/>
    </processing>

    <ssm_device>
        <device.ssm.probability value="1"/>
        <device.ssm.deterministic value="true"/>
        <device.ssm.measures value="TTC PET"/>
        <device.ssm.thresholds value="1.5 2"/>
        <device.ssm.trajectories value="false"/>
        <device.ssm.range value="20"/>
        <device.ssm.extratime value="0.5"/>
        <device.ssm.file value="/home/mohit/simulation/mpr_0.2/results/ssm.out.xml"/>
        <device.ssm.geo value="true"/>
    </ssm_device>

    <gui_only>
        <tracker-interval value="0.5"/>
    </gui_only>

</configuration>
-->

<meandata xmlns:xsi="http://www.w3.org/2001/XMLSchema-instance" xsi:noNamespaceSchemaLocation="http://sumo.dlr.de/xsd/meandata_file.xsd">
    <interval begin="25000.00" end="26800.00" id="edgedata">
        <edge id="106130759" sampledSeconds="104501.64" traveltime="48.63" overlapTraveltime="49.05" density="73.32" laneDensity="18.33" occupancy="9.38" waitingTime="1410.00" timeLoss="42937.65" speed="16.25" departed="2945" arrived="0" entered="0" left="2802" laneChangedFrom="1222" laneChangedTo="1222"/>
        <edge id="106130759-AddedOffRampEdge" sampledSeconds="37500.84" traveltime="15.36" overlapTraveltime="15.80" density="167.12" laneDensity="33.42" occupancy="16.65" waitingTime="3997.59" timeLoss="26256.61" speed="8.21" departed="0" arrived="0" entered="2387" left="2362" laneChangedFrom="774" laneChangedTo="774"/>
        <edge id="106130759.1186" sampledSeconds="119497.72" traveltime="44.11" overlapTraveltime="44.67" density="149.58" laneDensity="37.39" occupancy="19.01" waitingTime="5923.17" timeLoss="75993.69" speed="10.05" departed="0" arrived="0" entered="2720" left="2630" laneChangedFrom="158" laneChangedTo="158"/>
        <edge id="106130759.1630" sampledSeconds="71925.78" traveltime="27.05" overlapTraveltime="27.68" density="167.87" laneDensity="41.97" occupancy="21.14" waitingTime="4794.78" timeLoss="49028.25" speed="8.79" departed="0" arrived="0" entered="2630" left="2567" laneChangedFrom="87" laneChangedTo="87"/>
        <edge id="106130759.1868" sampledSeconds="75325.05" traveltime="29.12" overlapTraveltime="29.79" density="182.04" laneDensity="45.51" occupancy="23.01" waitingTime="8642.08" timeLoss="53787.63" speed="7.89" departed="0" arrived="0" entered="2567" left="2490" laneChangedFrom="79" laneChangedTo="79"/>
        <edge id="106130759.2098" sampledSeconds="116026.78" traveltime="46.61" overlapTraveltime="47.38" density="190.30" laneDensity="47.57" occupancy="24.23" waitingTime="22659.88" timeLoss="85497.03" speed="7.26" departed="0" arrived="0" entered="2490" left="2420" laneChangedFrom="197" laneChangedTo="197"/>
        <edge id="106130759.2437" sampledSeconds="50838.76" traveltime="20.53" overlapTraveltime="21.16" density="187.80" laneDensity="46.95" occupancy="23.46" waitingTime="10364.92" timeLoss="37292.36" speed="7.35" departed="0" arrived="0" entered="2420" left="2388" laneChangedFrom="156" laneChangedTo="156"/>
        <edge id="106130759.791" sampledSeconds="92577.85" traveltime="33.09" overlapTraveltime="33.56" density="130.46" laneDensity="32.62" occupancy="16.55" waitingTime="3775.48" timeLoss="52672.56" speed="11.90" departed="0" arrived="0" entered="2802" left="2720" laneChangedFrom="135" laneChangedTo="135"/>
        <edge id="11955830" sampledSeconds="19158.94" traveltime="17.66" overlapTraveltime="18.00" density="39.43" laneDensity="13.14" occupancy="6.56" waitingTime="22.00" timeLoss="1432.92" speed="15.28" departed="0" arrived="0" entered="1073" left="1058" laneChangedFrom="209" laneChangedTo="209"/>
        <edge id="11955831" sampledSeconds="7641.52" traveltime="7.19" overlapTraveltime="7.52" density="38.12" laneDensity="9.53" occupancy="4.65" waitingTime="0.00" timeLoss="461.35" speed="15.48" departed="0" arrived="0" entered="1018" left="1014" laneChangedFrom="133" laneChangedTo="133"/>
        <edge id="11959492" sampledSeconds="15498.24" traveltime="39.70" overlapTraveltime="40.30" density="29.89" laneDensity="29.89" occupancy="14.97" waitingTime="0.00" timeLoss="2008.99" speed="7.27" departed="0" arrived="0" entered="389" left="380" laneChangedFrom="0" laneChangedTo="0"/>
        <edge id="11994462" sampledSeconds="21390.62" traveltime="26.09" overlapTraveltime="26.81" density="67.76" laneDensity="33.88" occupancy="17.02" waitingTime="2.50" timeLoss="4399.62" speed="6.74" departed="0" arrived="0" entered="806" left="791" laneChangedFrom="279" laneChangedTo="279"/>
        <edge id="11994462-AddedOnRampEdge" sampledSeconds="6954.24" traveltime="7.92" overlapTraveltime="8.62" density="64.29" laneDensity="32.15" occupancy="15.26" waitingTime="0.00" timeLoss="579.70" speed="7.57" departed="0" arrived="0" entered="809" left="806" laneChangedFrom="124" laneChangedTo="124"/>
        <edge id="128189136" sampledSeconds="17497.24" traveltime="16.69" overlapTraveltime="17.00" density="38.15" laneDensity="19.08" occupancy="9.57" waitingTime="0.00" timeLoss="1292.47" speed="15.29" departed="0" arrived="0" entered="1036" left="1024" laneChangedFrom="145" laneChangedTo="145"/>
        <edge id="146909950#0" sampledSeconds="18419.78" traveltime="8.10" overlapTraveltime="8.64" density="160.17" laneDensity="32.03" occupancy="15.08" waitingTime="2331.49" timeLoss="11731.79" speed="7.98" departed="0" arrived="0" entered="2141" left="2123" laneChangedFrom="199" laneChangedTo="199"/>
        <edge id="146909950#1" sampledSeconds="16187.97" traveltime="14.43" overlapTraveltime="14.89" density="81.23" laneDensity="27.08" occupancy="13.12" waitingTime="643.00" timeLoss="10399.81" speed="7.78" departed="0" arrived="0" entered="1090" left="1085" laneChangedFrom="337" laneChangedTo="337"/>
        <edge id="155345296#0" sampledSeconds="4464.21" traveltime="15.92" overlapTraveltime="16.23" density="9.65" laneDensity="4.82" occupancy="2.40" waitingTime="0.00" timeLoss="122.90" speed="16.15" departed="0" arrived="0" entered="275" left="275" laneChangedFrom="129" laneChangedTo="129"/>
        <edge id="155345296#1" sampledSeconds="2465.68" traveltime="4.03" overlapTraveltime="4.36" density="22.10" laneDensity="7.37" occupancy="3.47" waitingTime="0.00" timeLoss="187.35" speed="15.39" departed="0" arrived="0" entered="566" left="565" laneChangedFrom="299" laneChangedTo="299"/>
        <edge id="16403444#0" sampledSeconds="9163.89" traveltime="15.99" overlapTraveltime="16.32" density="20.10" laneDensity="10.05" occupancy="5.02" waitingTime="0.00" timeLoss="447.96" speed="15.83" departed="0" arrived="0" entered="564" left="560" laneChangedFrom="73" laneChangedTo="73"/>
        <edge id="16403444#1" sampledSeconds="8438.59" traveltime="9.53" overlapTraveltime="9.86" density="31.26" laneDensity="10.42" occupancy="5.14" waitingTime="0.00" timeLoss="459.51" speed="15.73" departed="0" arrived="0" entered="859" left="852" laneChangedFrom="73" laneChangedTo="73"/>
        <edge id="16403446" sampledSeconds="12591.61" traveltime="11.25" overlapTraveltime="11.68" density="63.61" laneDensity="31.81" occupancy="15.59" waitingTime="40.50" timeLoss="5068.41" speed="9.86" departed="0" arrived="0" entered="1082" left="1075" laneChangedFrom="225" laneChangedTo="225"/>
        <edge id="16808971" sampledSeconds="6773.92" traveltime="22.00" overlapTraveltime="22.33" density="11.00" laneDensity="11.00" occupancy="5.54" waitingTime="0.00" timeLoss="426.08" speed="15.55" departed="0" arrived="0" entered="306" left="301" laneChangedFrom="0" laneChangedTo="0"/>
        <edge id="17516648" sampledSeconds="21718.27" traveltime="21.19" overlapTraveltime="22.43" density="134.29" laneDensity="67.14" occupancy="32.16" waitingTime="1.00" timeLoss="15783.63" speed="4.23" departed="0" arrived="0" entered="974" left="962" laneChangedFrom="6" laneChangedTo="6"/>
        <edge id="17550539" sampledSeconds="2336.91" traveltime="6.36" overlapTraveltime="6.67" density="13.05" laneDensity="13.05" occupancy="6.28" waitingTime="0.00" timeLoss="194.06" speed="15.67" departed="0" arrived="0" entered="351" left="350" laneChangedFrom="0" laneChangedTo="0"/>
        <edge id="18702678" sampledSeconds="1298.67" traveltime="4.04" overlapTraveltime="4.43" density="12.21" laneDensity="12.21" occupancy="5.72" waitingTime="0.00" timeLoss="144.28" speed="14.49" departed="0" arrived="0" entered="294" left="293" laneChangedFrom="0" laneChangedTo="0"/>
        <edge id="18702680" sampledSeconds="1471.59" traveltime="4.72" overlapTraveltime="5.05" density="11.43" laneDensity="11.43" occupancy="5.43" waitingTime="0.00" timeLoss="134.62" speed="15.17" departed="0" arrived="0" entered="292" left="291" laneChangedFrom="0" laneChangedTo="0"/>
        <edge id="18702682" sampledSeconds="1724.04" traveltime="5.51" overlapTraveltime="5.89" density="13.27" laneDensity="13.27" occupancy="6.34" waitingTime="0.00" timeLoss="126.89" speed="13.13" departed="0" arrived="0" entered="293" left="292" laneChangedFrom="0" laneChangedTo="0"/>
        <edge id="208416643" sampledSeconds="280.36" traveltime="0.71" overlapTraveltime="1.03" density="13.76" laneDensity="6.88" occupancy="2.44" waitingTime="0.00" timeLoss="6.71" speed="16.06" departed="0" arrived="0" entered="273" left="273" laneChangedFrom="0" laneChangedTo="0"/>
        <edge id="22941414" sampledSeconds="30466.32" traveltime="18.38" overlapTraveltime="18.72" density="68.88" laneDensity="34.44" occupancy="17.34" waitingTime="0.00" timeLoss="5943.66" speed="13.40" departed="0" arrived="0" entered="1636" left="1618" laneChangedFrom="35" laneChangedTo="35"/>
        <edge id="22941416#0" sampledSeconds="7258.75" traveltime="8.87" overlapTraveltime="9.26" density="34.41" laneDensity="34.41" occupancy="16.93" waitingTime="0.00" timeLoss="1479.06" speed="13.21" departed="0" arrived="0" entered="786" left="782" laneChangedFrom="0" laneChangedTo="0"/>
        <edge id="22941416#1" sampledSeconds="22029.19" traveltime="28.08" overlapTraveltime="28.47" density="33.79" laneDensity="33.79" occupancy="17.12" waitingTime="0.00" timeLoss="4989.24" speed="12.90" departed="0" arrived="0" entered="782" left="766" laneChangedFrom="0" laneChangedTo="0"/>
        <edge id="261187938" sampledSeconds="11903.15" traveltime="5.45" overlapTraveltime="6.16" density="165.45" laneDensity="41.36" occupancy="18.89" waitingTime="729.85" timeLoss="7947.00" speed="7.33" departed="0" arrived="0" entered="1938" left="1931" laneChangedFrom="111" laneChangedTo="111"/>
        <edge id="261187938-AddedOffRampEdge" sampledSeconds="21327.80" traveltime="10.65" overlapTraveltime="11.10" density="123.59" laneDensity="30.90" occupancy="15.13" waitingTime="473.00" timeLoss="12408.14" speed="9.10" departed="0" arrived="0" entered="1930" left="1914" laneChangedFrom="429" laneChangedTo="429"/>
        <edge id="261583463" sampledSeconds="1310.17" traveltime="12.70" overlapTraveltime="13.02" density="3.65" laneDensity="3.65" occupancy="1.85" waitingTime="0.00" timeLoss="64.26" speed="15.71" departed="0" arrived="0" entered="101" left="100" laneChangedFrom="0" laneChangedTo="0"/>
        <edge id="261583464" sampledSeconds="3763.92" traveltime="11.79" overlapTraveltime="12.14" density="11.87" laneDensity="11.87" occupancy="5.91" waitingTime="0.00" timeLoss="336.41" speed="14.93" departed="0" arrived="0" entered="313" left="307" laneChangedFrom="0" laneChangedTo="0"/>
        <edge id="26378010" sampledSeconds="1940.23" traveltime="5.83" overlapTraveltime="6.17" density="12.53" laneDensity="12.53" occupancy="6.04" waitingTime="0.00" timeLoss="194.76" speed="14.76" departed="0" arrived="0" entered="316" left="313" laneChangedFrom="0" laneChangedTo="0"/>
        <edge id="26380527" sampledSeconds="26444.48" traveltime="23.65" overlapTraveltime="24.16" density="59.40" laneDensity="29.70" occupancy="14.77" waitingTime="16.50" timeLoss="16281.40" speed="10.44" departed="0" arrived="0" entered="1111" left="1078" laneChangedFrom="129" laneChangedTo="129"/>
        <edge id="273755091#2" sampledSeconds="813.63" traveltime="0.72" overlapTraveltime="1.14" density="76.35" laneDensity="25.45" occupancy="8.15" waitingTime="124.50" timeLoss="337.73" speed="9.68" departed="0" arrived="0" entered="713" left="713" laneChangedFrom="2" laneChangedTo="2"/>
        <edge id="28001589" sampledSeconds="2030.39" traveltime="4.18" overlapTraveltime="4.52" density="17.66" laneDensity="8.83" occupancy="4.20" waitingTime="2.50" timeLoss="165.79" speed="15.27" departed="0" arrived="0" entered="450" left="448" laneChangedFrom="3" laneChangedTo="3"/>
        <edge id="28458821" sampledSeconds="20489.45" traveltime="26.95" overlapTraveltime="27.30" density="31.32" laneDensity="31.32" occupancy="15.64" waitingTime="0.00" timeLoss="3906.28" speed="13.50" departed="0" arrived="0" entered="758" left="744" laneChangedFrom="0" laneChangedTo="0"/>
        <edge id="28458824" sampledSeconds="8885.93" traveltime="29.10" overlapTraveltime="29.42" density="11.41" laneDensity="11.41" occupancy="5.78" waitingTime="0.00" timeLoss="869.23" speed="14.88" departed="0" arrived="0" entered="307" left="300" laneChangedFrom="0" laneChangedTo="0"/>
        <edge id="28458828" sampledSeconds="10344.76" traveltime="5.55" overlapTraveltime="5.90" density="71.58" laneDensity="14.32" occupancy="6.86" waitingTime="40.00" timeLoss="1303.72" speed="14.48" departed="0" arrived="0" entered="1756" left="1752" laneChangedFrom="1037" laneChangedTo="1037"/>
        <edge id="28458895" sampledSeconds="9539.04" traveltime="5.29" overlapTraveltime="5.54" density="52.75" laneDensity="13.19" occupancy="6.38" waitingTime="0.00" timeLoss="1310.29" speed="19.06" departed="0" arrived="0" entered="1726" left="1719" laneChangedFrom="258" laneChangedTo="258"/>
        <edge id="28531510" sampledSeconds="1634.97" traveltime="3.55" overlapTraveltime="3.95" density="19.79" laneDensity="9.90" occupancy="4.54" waitingTime="4.00" timeLoss="361.59" speed="12.90" departed="0" arrived="0" entered="415" left="413" laneChangedFrom="100" laneChangedTo="100"/>
        <edge id="28531510.48" sampledSeconds="3637.98" traveltime="8.47" overlapTraveltime="8.81" density="16.43" laneDensity="16.43" occupancy="8.00" waitingTime="0.00" timeLoss="446.05" speed="14.54" departed="0" arrived="0" entered="413" left="412" laneChangedFrom="0" laneChangedTo="0"/>
        <edge id="29038677" sampledSeconds="4817.94" traveltime="16.94" overlapTraveltime="17.27" density="10.39" laneDensity="10.39" occupancy="5.17" waitingTime="0.00" timeLoss="402.97" speed="15.22" departed="0" arrived="0" entered="279" left="279" laneChangedFrom="0" laneChangedTo="0"/>
        <edge id="29332864" sampledSeconds="8366.11" traveltime="24.09" overlapTraveltime="24.49" density="12.88" laneDensity="12.88" occupancy="6.49" waitingTime="4.00" timeLoss="899.23" speed="14.95" departed="0" arrived="0" entered="347" left="338" laneChangedFrom="0" laneChangedTo="0"/>
        <edge id="293596618#1-AddedOffRampEdge" sampledSeconds="126826.50" traveltime="70.33" overlapTraveltime="71.05" density="144.90" laneDensity="36.22" occupancy="18.41" waitingTime="7483.82" timeLoss="87038.45" speed="6.92" departed="2016" arrived="0" entered="0" left="1939" laneChangedFrom="1134" laneChangedTo="1134"/>
        <edge id="30414032" sampledSeconds="16463.41" traveltime="21.65" overlapTraveltime="21.98" density="30.56" laneDensity="30.56" occupancy="15.24" waitingTime="0.00" timeLoss="2623.74" speed="13.84" departed="0" arrived="0" entered="755" left="744" laneChangedFrom="0" laneChangedTo="0"/>
        <edge id="319144060" sampledSeconds="16751.39" traveltime="20.46" overlapTraveltime="20.81" density="34.39" laneDensity="11.46" occupancy="5.65" waitingTime="0.00" timeLoss="3253.77" speed="13.24" departed="1058" arrived="0" entered="0" left="1046" laneChangedFrom="84" laneChangedTo="84"/>
        <edge id="328393125" sampledSeconds="22039.19" traveltime="12.49" overlapTraveltime="12.73" density="39.72" laneDensity="9.93" occupancy="5.01" waitingTime="1.00" timeLoss="2384.24" speed="24.63" departed="0" arrived="0" entered="1741" left="1727" laneChangedFrom="432" laneChangedTo="432"/>
        <edge id="328393125-AddedOnRampEdge" sampledSeconds="8730.08" traveltime="4.79" overlapTraveltime="5.00" density="48.05" laneDensity="9.61" occupancy="4.70" waitingTime="3.50" timeLoss="2025.19" speed="21.20" departed="0" arrived="0" entered="1750" left="1741" laneChangedFrom="363" laneChangedTo="363"/>
        <edge id="332655578" sampledSeconds="74759.15" traveltime="78.74" overlapTraveltime="79.61" density="127.16" laneDensity="63.58" occupancy="31.77" waitingTime="32.50" timeLoss="37276.55" speed="4.17" departed="0" arrived="0" entered="962" left="918" laneChangedFrom="139" laneChangedTo="139"/>
        <edge id="332655581" sampledSeconds="3084.60" traveltime="7.87" overlapTraveltime="8.14" density="14.59" laneDensity="14.59" occupancy="7.04" waitingTime="0.00" timeLoss="1391.35" speed="15.05" departed="0" arrived="0" entered="380" left="378" laneChangedFrom="0" laneChangedTo="0"/>
        <edge id="345616204#1" sampledSeconds="28286.40" traveltime="13.59" overlapTraveltime="13.79" density="47.58" laneDensity="11.89" occupancy="6.01" waitingTime="0.00" timeLoss="3388.75" speed="24.32" departed="0" arrived="0" entered="2061" left="2043" laneChangedFrom="353" laneChangedTo="353"/>
        <edge id="345616204#1-AddedOnRampEdge" sampledSeconds="11191.62" traveltime="5.16" overlapTraveltime="5.42" density="67.56" laneDensity="13.51" occupancy="6.61" waitingTime="148.00" timeLoss="3936.29" speed="17.92" departed="0" arrived="0" entered="2065" left="2061" laneChangedFrom="478" laneChangedTo="478"/>
        <edge id="345616204#1.334" sampledSeconds="26322.48" traveltime="12.74" overlapTraveltime="12.95" density="45.45" laneDensity="11.36" occupancy="5.74" waitingTime="0.00" timeLoss="2277.97" speed="25.25" departed="0" arrived="0" entered="2043" left="2024" laneChangedFrom="235" laneChangedTo="235"/>
        <edge id="345616204#1.655" sampledSeconds="30286.02" traveltime="14.91" overlapTraveltime="15.10" density="44.34" laneDensity="11.08" occupancy="5.63" waitingTime="0.00" timeLoss="2385.26" speed="25.46" departed="0" arrived="2000" entered="2024" left="0" laneChangedFrom="31" laneChangedTo="31"/>
        <edge id="360361373" sampledSeconds="40203.45" traveltime="18.61" overlapTraveltime="18.81" density="48.65" laneDensity="12.16" occupancy="6.12" waitingTime="0.00" timeLoss="4184.82" speed="24.68" departed="0" arrived="0" entered="2152" left="2123" laneChangedFrom="564" laneChangedTo="564"/>
        <edge id="360361373-AddedOffRampEdge" sampledSeconds="8190.14" traveltime="3.95" overlapTraveltime="4.16" density="48.80" laneDensity="9.76" occupancy="4.71" waitingTime="0.00" timeLoss="1176.04" speed="23.61" departed="0" arrived="0" entered="1971" left="1965" laneChangedFrom="359" laneChangedTo="359"/>
        <edge id="360361373-AddedOnRampEdge" sampledSeconds="11641.56" traveltime="5.14" overlapTraveltime="5.40" density="70.27" laneDensity="14.05" occupancy="6.82" waitingTime="75.00" timeLoss="4038.57" speed="17.99" departed="0" arrived="0" entered="2161" left="2152" laneChangedFrom="1043" laneChangedTo="1043"/>
        <edge id="360361373.1498" sampledSeconds="33075.76" traveltime="15.85" overlapTraveltime="16.05" density="45.81" laneDensity="11.45" occupancy="5.75" waitingTime="0.00" timeLoss="2693.08" speed="25.31" departed="0" arrived="0" entered="2073" left="2051" laneChangedFrom="206" laneChangedTo="206"/>
        <edge id="360361373.1899" sampledSeconds="25879.71" traveltime="12.44" overlapTraveltime="12.64" density="45.64" laneDensity="11.41" occupancy="5.71" waitingTime="0.00" timeLoss="2103.17" speed="25.32" departed="0" arrived="0" entered="2051" left="2038" laneChangedFrom="170" laneChangedTo="170"/>
        <edge id="360361373.2215" sampledSeconds="35484.54" traveltime="17.34" overlapTraveltime="17.56" density="46.10" laneDensity="11.53" occupancy="5.79" waitingTime="0.00" timeLoss="3757.33" speed="24.64" departed="0" arrived="0" entered="2038" left="2001" laneChangedFrom="250" laneChangedTo="250"/>
        <edge id="360361373.2643" sampledSeconds="36887.38" traveltime="18.37" overlapTraveltime="18.59" density="49.84" laneDensity="12.46" occupancy="6.26" waitingTime="0.00" timeLoss="6921.33" speed="22.39" departed="0" arrived="0" entered="2001" left="1971" laneChangedFrom="999" laneChangedTo="999"/>
        <edge id="360361373.463" sampledSeconds="43556.92" traveltime="20.45" overlapTraveltime="20.65" density="46.66" laneDensity="11.66" occupancy="5.87" waitingTime="0.00" timeLoss="3450.21" speed="25.37" departed="0" arrived="0" entered="2123" left="2092" laneChangedFrom="369" laneChangedTo="369"/>
        <edge id="360361373.981" sampledSeconds="42745.31" traveltime="20.35" overlapTraveltime="20.55" density="46.03" laneDensity="11.51" occupancy="5.79" waitingTime="0.00" timeLoss="3418.25" speed="25.35" departed="0" arrived="0" entered="2092" left="2073" laneChangedFrom="321" laneChangedTo="321"/>
        <edge id="4074534" sampledSeconds="2947.05" traveltime="4.90" overlapTraveltime="5.22" density="21.24" laneDensity="10.62" occupancy="5.07" waitingTime="0.00" timeLoss="160.28" speed="15.74" departed="0" arrived="0" entered="565" left="564" laneChangedFrom="47" laneChangedTo="47"/>
        <edge id="41517592" sampledSeconds="9810.58" traveltime="12.20" overlapTraveltime="12.46" density="30.79" laneDensity="15.40" occupancy="7.66" waitingTime="0.00" timeLoss="4603.17" speed="14.62" departed="0" arrived="0" entered="791" left="784" laneChangedFrom="255" laneChangedTo="255"/>
        <edge id="428960734" sampledSeconds="40094.56" traveltime="23.33" overlapTraveltime="23.57" density="46.86" laneDensity="11.71" occupancy="5.91" waitingTime="0.00" timeLoss="3102.34" speed="20.39" departed="0" arrived="1694" entered="1719" left="0" laneChangedFrom="394" laneChangedTo="394"/>
        <edge id="428960735" sampledSeconds="5564.03" traveltime="2.98" overlapTraveltime="3.24" density="51.39" laneDensity="12.85" occupancy="6.03" waitingTime="0.00" timeLoss="489.49" speed="20.15" departed="0" arrived="0" entered="1719" left="1719" laneChangedFrom="79" laneChangedTo="79"/>
        <edge id="429432523" sampledSeconds="12918.02" traveltime="7.14" overlapTraveltime="7.45" density="64.78" laneDensity="16.19" occupancy="7.89" waitingTime="0.00" timeLoss="1023.88" speed="15.55" departed="0" arrived="0" entered="1740" left="1727" laneChangedFrom="125" laneChangedTo="125"/>
        <edge id="429432524" sampledSeconds="10120.11" traveltime="9.08" overlapTraveltime="9.40" density="29.56" laneDensity="9.85" occupancy="4.87" waitingTime="0.00" timeLoss="2253.40" speed="20.77" departed="0" arrived="0" entered="1079" left="1073" laneChangedFrom="114" laneChangedTo="114"/>
        <edge id="429432526" sampledSeconds="23428.72" traveltime="30.20" overlapTraveltime="30.53" density="28.27" laneDensity="14.13" occupancy="7.12" waitingTime="0.00" timeLoss="1762.22" speed="15.25" departed="0" arrived="0" entered="777" left="759" laneChangedFrom="109" laneChangedTo="109"/>
        <edge id="429432925" sampledSeconds="902.39" traveltime="0.18" overlapTraveltime="0.52" density="189.90" laneDensity="47.47" occupancy="8.25" waitingTime="0.00" timeLoss="86.01" speed="14.99" departed="0" arrived="0" entered="1751" left="1751" laneChangedFrom="7" laneChangedTo="7"/>
        <edge id="431199180" sampledSeconds="6427.25" traveltime="3.67" overlapTraveltime="3.98" density="58.50" laneDensity="14.62" occupancy="6.93" waitingTime="6.50" timeLoss="1578.95" speed="16.65" departed="0" arrived="0" entered="1618" left="1616" laneChangedFrom="241" laneChangedTo="241"/>
        <edge id="4402237" sampledSeconds="2726.91" traveltime="4.50" overlapTraveltime="4.83" density="22.06" laneDensity="7.35" occupancy="3.49" waitingTime="6.00" timeLoss="224.10" speed="15.28" departed="0" arrived="0" entered="565" left="565" laneChangedFrom="41" laneChangedTo="41"/>
        <edge id="4402297" sampledSeconds="18229.75" traveltime="14.13" overlapTraveltime="14.33" density="28.23" laneDensity="9.41" occupancy="4.77" waitingTime="0.00" timeLoss="1503.92" speed="25.40" departed="0" arrived="0" entered="1280" left="1266" laneChangedFrom="351" laneChangedTo="351"/>
        <edge id="4404096" sampledSeconds="9694.08" traveltime="13.94" overlapTraveltime="14.26" density="24.59" laneDensity="8.20" occupancy="4.09" waitingTime="0.00" timeLoss="470.49" speed="15.72" departed="0" arrived="0" entered="685" left="674" laneChangedFrom="205" laneChangedTo="205"/>
        <edge id="4414080#0" sampledSeconds="26012.37" traveltime="12.99" overlapTraveltime="13.29" density="57.91" laneDensity="11.58" occupancy="5.77" waitingTime="127.00" timeLoss="7861.13" speed="19.16" departed="0" arrived="0" entered="1965" left="1948" laneChangedFrom="697" laneChangedTo="697"/>
        <edge id="4414080#0.187" sampledSeconds="17688.81" traveltime="17.86" overlapTraveltime="18.06" density="20.93" laneDensity="6.98" occupancy="3.51" waitingTime="0.00" timeLoss="865.71" speed="26.28" departed="0" arrived="0" entered="984" left="973" laneChangedFrom="254" laneChangedTo="254"/>
        <edge id="4414080#0.756" sampledSeconds="3683.59" traveltime="2.46" overlapTraveltime="2.73" density="42.76" laneDensity="10.69" occupancy="4.95" waitingTime="83.00" timeLoss="1092.35" speed="19.40" departed="0" arrived="0" entered="1351" left="1349" laneChangedFrom="442" laneChangedTo="442"/>
        <edge id="4414080#0.756.47" sampledSeconds="3387.26" traveltime="2.31" overlapTraveltime="2.52" density="35.47" laneDensity="11.82" occupancy="5.48" waitingTime="0.00" timeLoss="548.97" speed="23.11" departed="0" arrived="0" entered="1349" left="1345" laneChangedFrom="71" laneChangedTo="71"/>
        <edge id="4414080#1-AddedOnRampEdge" sampledSeconds="29945.77" traveltime="13.88" overlapTraveltime="14.08" density="48.48" laneDensity="12.12" occupancy="6.06" waitingTime="0.00" timeLoss="3037.18" speed="24.73" departed="0" arrived="0" entered="2138" left="2117" laneChangedFrom="518" laneChangedTo="518"/>
        <edge id="4414080#1-AddedOnRampEdge.343" sampledSeconds="28271.69" traveltime="13.22" overlapTraveltime="13.42" density="47.35" laneDensity="11.84" occupancy="5.92" waitingTime="0.00" timeLoss="2484.23" speed="25.10" departed="0" arrived="0" entered="2117" left="2095" laneChangedFrom="280" laneChangedTo="280"/>
        <edge id="4414080#1-AddedOnRampEdge.675" sampledSeconds="19967.42" traveltime="9.36" overlapTraveltime="9.56" density="47.11" laneDensity="11.78" occupancy="5.85" waitingTime="0.00" timeLoss="1717.99" speed="25.15" departed="0" arrived="0" entered="2095" left="2082" laneChangedFrom="156" laneChangedTo="156"/>
        <edge id="457424511#3" sampledSeconds="15759.56" traveltime="26.06" overlapTraveltime="26.39" density="21.11" laneDensity="7.04" occupancy="3.58" waitingTime="0.00" timeLoss="565.81" speed="15.91" departed="1057" arrived="0" entered="0" left="1045" laneChangedFrom="287" laneChangedTo="287"/>
        <edge id="457424511#3.414" sampledSeconds="25412.34" traveltime="24.08" overlapTraveltime="24.50" density="38.51" laneDensity="12.84" occupancy="6.50" waitingTime="3.50" timeLoss="2043.42" speed="15.17" departed="0" arrived="0" entered="1045" left="1029" laneChangedFrom="236" laneChangedTo="236"/>
        <edge id="48290550" sampledSeconds="75572.75" traveltime="30.32" overlapTraveltime="30.53" density="56.62" laneDensity="14.15" occupancy="7.17" waitingTime="0.00" timeLoss="8518.86" speed="24.46" departed="0" arrived="0" entered="2502" left="2448" laneChangedFrom="547" laneChangedTo="547"/>
        <edge id="48290550-AddedOffRampEdge" sampledSeconds="13296.64" traveltime="6.06" overlapTraveltime="6.35" density="67.15" laneDensity="11.19" occupancy="5.46" waitingTime="57.00" timeLoss="4417.63" speed="18.13" departed="0" arrived="0" entered="2101" left="2089" laneChangedFrom="542" laneChangedTo="542"/>
        <edge id="48290550.1176" sampledSeconds="30441.81" traveltime="12.38" overlapTraveltime="12.59" density="55.58" laneDensity="13.89" occupancy="6.97" waitingTime="0.00" timeLoss="3306.08" speed="24.58" departed="0" arrived="0" entered="2425" left="2411" laneChangedFrom="131" laneChangedTo="131"/>
        <edge id="48290550.1480" sampledSeconds="39860.13" traveltime="16.42" overlapTraveltime="16.63" density="55.59" laneDensity="13.90" occupancy="7.00" waitingTime="0.00" timeLoss="4783.00" speed="24.26" departed="0" arrived="0" entered="2411" left="2381" laneChangedFrom="213" laneChangedTo="213"/>
        <edge id="48290550.1878" sampledSeconds="59047.17" traveltime="24.88" overlapTraveltime="25.21" density="63.84" laneDensity="15.96" occupancy="8.06" waitingTime="0.00" timeLoss="14921.80" speed="20.59" departed="0" arrived="0" entered="2381" left="2294" laneChangedFrom="288" laneChangedTo="288"/>
        <edge id="48290550.2391" sampledSeconds="104345.07" traveltime="46.11" overlapTraveltime="46.70" density="113.08" laneDensity="28.27" occupancy="14.27" waitingTime="0.00" timeLoss="62384.20" speed="11.09" departed="0" arrived="0" entered="2294" left="2179" laneChangedFrom="306" laneChangedTo="306"/>