<?xml version="1.0" encoding="UTF-8"?>

<configuration xmlns:xsi="http://www.w3.org/2001/XMLSchema-instance" xsi:noNamespaceSchemaLocation="http://sumo.dlr.de/xsd/sumoConfiguration.xsd">

    <input>
        <net-file value="net.xml"/>
		<additional-files value="add.xml,rou.xml,emi.xml,poi.xml"/>
    </input>

	
    <time>
        <begin value="25000"/>
        <end value="27200"/>
        <step-length value="0.5"/>
    </time>
<output>
		<tripinfo-output value="/home/mgarg/src/plexe/examples/sumo_simulation/sumocfg/mpr_0.7/tripinfo.out.xml"/>
		<!--
		<summary-output value="output/summary.out.xml"/>
		-->
		
		<device.ssm.file value="/home/mgarg/src/plexe/examples/sumo_simulation/sumocfg/mpr_0.7/ssm.out.xml"/>
		<device.ssm.probability value="1"/>
		<device.ssm.deterministic value="True"/>
		<device.ssm.measures value="TTC PET"/>
		<device.ssm.thresholds  value="1.5 2"/>
		<device.ssm.range value="20"/>
		<device.ssm.extratime value="0.5"/>
		<device.ssm.trajectories value="False"/>
		<device.ssm.geo value="True"/>
		
		
		<!--<fcd-output value="dublin.output.xml"/>-->
		<!--<fcd-output.geo value="true"/>>-->
	</output>

	<processing>
		<emergencydecel.warning-threshold value="5"/>
		<collision.mingap-factor value="0"/>
	</processing>

</configuration>
