<?xml version="1.0" encoding="UTF-8"?>

<!-- generated on Sun 14 Mar 2021 11:26:05 GMT by Eclipse SUMO GUI Version 1.7.0
<configuration xmlns:xsi="http://www.w3.org/2001/XMLSchema-instance" xsi:noNamespaceSchemaLocation="http://sumo.dlr.de/xsd/sumoConfiguration.xsd">

    <input>
        <net-file value="M50network.net.xml"/>
        <additional-files value="vtypes.add.xml,M50_routes.rou.xml,output.add.xml,M50_emitters.emi.xml,M50_detectors.poi.xml"/>
    </input>

    <time>
        <begin value="0"/>
        <end value="86400"/>
        <step-length value="0.5"/>
    </time>

    <processing>
        <collision.mingap-factor value="0"/>
        <emergencydecel.warning-threshold value="5"/>
    </processing>

    <gui_only>
        <tracker-interval value="0.5"/>
    </gui_only>

</configuration>
-->

<meandata xmlns:xsi="http://www.w3.org/2001/XMLSchema-instance" xsi:noNamespaceSchemaLocation="http://sumo.dlr.de/xsd/meandata_file.xsd">
    <interval begin="0.00" end="1800.00" id="edgedata">
        <edge id="106130759" sampledSeconds="6543.70" traveltime="28.91" overlapTraveltime="29.09" density="4.59" laneDensity="1.15" occupancy="0.58" waitingTime="0.00" speed="27.39" departed="449" arrived="0" entered="0" left="447" laneChangedFrom="294" laneChangedTo="294"/>
        <edge id="106130759-AddedOffRampEdge" sampledSeconds="2493.93" traveltime="5.53" overlapTraveltime="5.78" density="11.11" laneDensity="2.22" occupancy="1.08" waitingTime="3.00" speed="22.44" departed="0" arrived="0" entered="433" left="430" laneChangedFrom="68" laneChangedTo="68"/>
        <edge id="106130759.1186" sampledSeconds="7256.63" traveltime="16.23" overlapTraveltime="16.42" density="9.08" laneDensity="2.27" occupancy="1.14" waitingTime="0.00" speed="27.34" departed="0" arrived="0" entered="446" left="439" laneChangedFrom="105" laneChangedTo="105"/>
        <edge id="106130759.1630" sampledSeconds="3899.80" traveltime="8.71" overlapTraveltime="8.89" density="9.10" laneDensity="2.28" occupancy="1.13" waitingTime="0.00" speed="27.34" departed="0" arrived="0" entered="439" left="438" laneChangedFrom="43" laneChangedTo="43"/>
        <edge id="106130759.1868" sampledSeconds="3754.07" traveltime="8.41" overlapTraveltime="8.60" density="9.07" laneDensity="2.27" occupancy="1.12" waitingTime="0.00" speed="27.33" departed="0" arrived="0" entered="438" left="436" laneChangedFrom="31" laneChangedTo="31"/>
        <edge id="106130759.2098" sampledSeconds="5479.15" traveltime="12.44" overlapTraveltime="12.63" density="8.99" laneDensity="2.25" occupancy="1.12" waitingTime="0.00" speed="27.22" departed="0" arrived="0" entered="436" left="433" laneChangedFrom="70" laneChangedTo="70"/>
        <edge id="106130759.2437" sampledSeconds="2522.98" traveltime="5.63" overlapTraveltime="5.83" density="9.32" laneDensity="2.33" occupancy="1.14" waitingTime="0.00" speed="26.67" departed="0" arrived="0" entered="433" left="433" laneChangedFrom="90" laneChangedTo="90"/>
        <edge id="106130759.791" sampledSeconds="6522.52" traveltime="14.43" overlapTraveltime="14.61" density="9.19" laneDensity="2.30" occupancy="1.15" waitingTime="0.00" speed="27.33" departed="0" arrived="0" entered="447" left="446" laneChangedFrom="157" laneChangedTo="157"/>
        <edge id="11955830" sampledSeconds="3672.27" traveltime="16.49" overlapTraveltime="16.80" density="7.56" laneDensity="2.52" occupancy="1.24" waitingTime="1.00" speed="16.36" departed="0" arrived="0" entered="219" left="218" laneChangedFrom="73" laneChangedTo="73"/>
        <edge id="11955831" sampledSeconds="1617.48" traveltime="6.74" overlapTraveltime="7.05" density="8.07" laneDensity="2.02" occupancy="0.97" waitingTime="0.00" speed="16.52" departed="0" arrived="0" entered="230" left="228" laneChangedFrom="36" laneChangedTo="36"/>
        <edge id="11959492" sampledSeconds="4068.34" traveltime="35.52" overlapTraveltime="36.08" density="7.85" laneDensity="7.85" occupancy="3.86" waitingTime="0.00" speed="8.12" departed="0" arrived="0" entered="115" left="110" laneChangedFrom="0" laneChangedTo="0"/>
        <edge id="11994462" sampledSeconds="1956.85" traveltime="21.25" overlapTraveltime="21.81" density="6.20" laneDensity="3.10" occupancy="1.51" waitingTime="0.00" speed="8.27" departed="0" arrived="0" entered="90" left="89" laneChangedFrom="9" laneChangedTo="9"/>
        <edge id="11994462-AddedOnRampEdge" sampledSeconds="708.08" traveltime="7.27" overlapTraveltime="7.87" density="6.55" laneDensity="3.27" occupancy="1.51" waitingTime="0.00" speed="8.27" departed="0" arrived="0" entered="90" left="90" laneChangedFrom="41" laneChangedTo="41"/>
        <edge id="128189136" sampledSeconds="3602.44" traveltime="15.65" overlapTraveltime="15.95" density="7.85" laneDensity="3.93" occupancy="1.94" waitingTime="0.00" speed="16.29" departed="0" arrived="0" entered="227" left="224" laneChangedFrom="36" laneChangedTo="36"/>
        <edge id="146909950#0" sampledSeconds="633.11" traveltime="2.97" overlapTraveltime="3.20" density="5.51" laneDensity="1.10" occupancy="0.51" waitingTime="0.00" speed="21.55" departed="0" arrived="0" entered="199" left="198" laneChangedFrom="7" laneChangedTo="7"/>
        <edge id="146909950#1" sampledSeconds="687.84" traveltime="6.01" overlapTraveltime="6.32" density="3.45" laneDensity="1.15" occupancy="0.55" waitingTime="0.00" speed="18.31" departed="0" arrived="0" entered="109" left="108" laneChangedFrom="4" laneChangedTo="4"/>
        <edge id="155345296#0" sampledSeconds="411.20" traveltime="16.13" overlapTraveltime="16.45" density="0.89" laneDensity="0.44" occupancy="0.22" waitingTime="0.00" speed="15.93" departed="0" arrived="0" entered="25" left="25" laneChangedFrom="1" laneChangedTo="1"/>
        <edge id="155345296#1" sampledSeconds="267.61" traveltime="3.87" overlapTraveltime="4.18" density="2.40" laneDensity="0.80" occupancy="0.37" waitingTime="0.00" speed="16.02" departed="0" arrived="0" entered="64" left="64" laneChangedFrom="39" laneChangedTo="39"/>
        <edge id="16403444#0" sampledSeconds="987.86" traveltime="15.82" overlapTraveltime="16.13" density="2.17" laneDensity="1.08" occupancy="0.53" waitingTime="0.00" speed="16.01" departed="0" arrived="0" entered="62" left="61" laneChangedFrom="17" laneChangedTo="17"/>
        <edge id="16403444#1" sampledSeconds="1245.66" traveltime="9.23" overlapTraveltime="9.54" density="4.62" laneDensity="1.54" occupancy="0.75" waitingTime="0.00" speed="16.25" departed="0" arrived="0" entered="133" left="129" laneChangedFrom="12" laneChangedTo="12"/>
        <edge id="16403446" sampledSeconds="1631.94" traveltime="7.04" overlapTraveltime="7.38" density="8.24" laneDensity="4.12" occupancy="2.00" waitingTime="0.00" speed="15.58" departed="0" arrived="0" entered="221" left="221" laneChangedFrom="11" laneChangedTo="11"/>
        <edge id="16808971" sampledSeconds="1517.17" traveltime="20.76" overlapTraveltime="21.07" density="2.46" laneDensity="2.46" occupancy="1.23" waitingTime="0.00" speed="16.47" departed="0" arrived="0" entered="72" left="72" laneChangedFrom="0" laneChangedTo="0"/>
        <edge id="17516648" sampledSeconds="652.47" traveltime="6.74" overlapTraveltime="7.33" density="4.03" laneDensity="2.02" occupancy="0.95" waitingTime="0.00" speed="12.94" departed="0" arrived="0" entered="89" left="89" laneChangedFrom="21" laneChangedTo="21"/>
        <edge id="17550539" sampledSeconds="831.83" traveltime="6.05" overlapTraveltime="6.35" density="4.65" laneDensity="4.65" occupancy="2.21" waitingTime="0.00" speed="16.45" departed="0" arrived="0" entered="131" left="131" laneChangedFrom="0" laneChangedTo="0"/>
        <edge id="18702678" sampledSeconds="176.60" traveltime="4.16" overlapTraveltime="4.53" density="1.66" laneDensity="1.66" occupancy="0.77" waitingTime="0.00" speed="14.15" departed="0" arrived="0" entered="39" left="39" laneChangedFrom="0" laneChangedTo="0"/>
        <edge id="18702680" sampledSeconds="193.02" traveltime="4.64" overlapTraveltime="4.95" density="1.50" laneDensity="1.50" occupancy="0.70" waitingTime="0.00" speed="15.46" departed="0" arrived="0" entered="39" left="39" laneChangedFrom="0" laneChangedTo="0"/>
        <edge id="18702682" sampledSeconds="223.38" traveltime="5.36" overlapTraveltime="5.73" density="1.72" laneDensity="1.72" occupancy="0.80" waitingTime="0.00" speed="13.48" departed="0" arrived="0" entered="39" left="39" laneChangedFrom="0" laneChangedTo="0"/>
        <edge id="208416643" sampledSeconds="15.83" traveltime="0.69" overlapTraveltime="0.99" density="0.78" laneDensity="0.39" occupancy="0.13" waitingTime="0.00" speed="16.50" departed="0" arrived="0" entered="16" left="16" laneChangedFrom="0" laneChangedTo="0"/>
        <edge id="22941414" sampledSeconds="2721.46" traveltime="15.16" overlapTraveltime="15.46" density="6.15" laneDensity="3.08" occupancy="1.51" waitingTime="0.00" speed="16.22" departed="0" arrived="0" entered="176" left="176" laneChangedFrom="34" laneChangedTo="34"/>
        <edge id="22941416#0" sampledSeconds="651.09" traveltime="7.35" overlapTraveltime="7.66" density="3.09" laneDensity="3.09" occupancy="1.48" waitingTime="0.00" speed="15.95" departed="0" arrived="0" entered="85" left="85" laneChangedFrom="0" laneChangedTo="0"/>
        <edge id="22941416#1" sampledSeconds="1962.39" traveltime="23.07" overlapTraveltime="23.39" density="3.01" laneDensity="3.01" occupancy="1.48" waitingTime="0.00" speed="15.70" departed="0" arrived="0" entered="85" left="83" laneChangedFrom="0" laneChangedTo="0"/>
        <edge id="261187938" sampledSeconds="407.18" traveltime="1.86" overlapTraveltime="2.10" density="5.66" laneDensity="1.41" occupancy="0.63" waitingTime="0.00" speed="21.43" departed="0" arrived="0" entered="194" left="194" laneChangedFrom="0" laneChangedTo="0"/>
        <edge id="261187938-AddedOffRampEdge" sampledSeconds="1043.92" traveltime="5.11" overlapTraveltime="5.40" density="6.05" laneDensity="1.51" occupancy="0.72" waitingTime="0.00" speed="18.67" departed="0" arrived="0" entered="194" left="193" laneChangedFrom="8" laneChangedTo="8"/>
        <edge id="261583463" sampledSeconds="254.42" traveltime="12.38" overlapTraveltime="12.72" density="0.71" laneDensity="0.71" occupancy="0.35" waitingTime="0.00" speed="16.07" departed="0" arrived="0" entered="20" left="20" laneChangedFrom="0" laneChangedTo="0"/>
        <edge id="261583464" sampledSeconds="1003.89" traveltime="10.89" overlapTraveltime="11.20" density="3.17" laneDensity="3.17" occupancy="1.55" waitingTime="0.00" speed="16.17" departed="0" arrived="0" entered="91" left="89" laneChangedFrom="0" laneChangedTo="0"/>
        <edge id="26378010" sampledSeconds="536.44" traveltime="5.52" overlapTraveltime="5.84" density="3.46" laneDensity="3.46" occupancy="1.65" waitingTime="0.00" speed="15.60" departed="0" arrived="0" entered="92" left="91" laneChangedFrom="0" laneChangedTo="0"/>
        <edge id="26380527" sampledSeconds="1325.56" traveltime="11.02" overlapTraveltime="11.33" density="2.98" laneDensity="1.49" occupancy="0.73" waitingTime="0.00" speed="22.27" departed="0" arrived="0" entered="117" left="117" laneChangedFrom="5" laneChangedTo="5"/>
        <edge id="273755091#2" sampledSeconds="166.53" traveltime="0.58" overlapTraveltime="0.94" density="15.63" laneDensity="5.21" occupancy="1.58" waitingTime="12.50" speed="11.73" departed="0" arrived="0" entered="178" left="178" laneChangedFrom="1" laneChangedTo="1"/>
        <edge id="28001589" sampledSeconds="474.05" traveltime="3.85" overlapTraveltime="4.16" density="4.12" laneDensity="2.06" occupancy="0.97" waitingTime="0.00" speed="16.58" departed="0" arrived="0" entered="114" left="114" laneChangedFrom="0" laneChangedTo="0"/>
        <edge id="28458821" sampledSeconds="1911.48" traveltime="22.90" overlapTraveltime="23.22" density="2.92" laneDensity="2.92" occupancy="1.44" waitingTime="0.00" speed="15.87" departed="0" arrived="0" entered="83" left="82" laneChangedFrom="0" laneChangedTo="0"/>
        <edge id="28458824" sampledSeconds="2406.39" traveltime="26.73" overlapTraveltime="27.04" density="3.09" laneDensity="3.09" occupancy="1.54" waitingTime="0.00" speed="16.19" departed="0" arrived="0" entered="89" left="89" laneChangedFrom="0" laneChangedTo="0"/>
        <edge id="28458828" sampledSeconds="1627.86" traveltime="4.95" overlapTraveltime="5.26" density="11.26" laneDensity="2.25" occupancy="1.06" waitingTime="0.00" speed="16.22" departed="0" arrived="0" entered="310" left="309" laneChangedFrom="166" laneChangedTo="166"/>
        <edge id="28458895" sampledSeconds="1637.10" traveltime="5.10" overlapTraveltime="5.33" density="9.05" laneDensity="2.26" occupancy="1.08" waitingTime="0.00" speed="19.78" departed="0" arrived="0" entered="308" left="307" laneChangedFrom="20" laneChangedTo="20"/>
        <edge id="28531510" sampledSeconds="181.97" traveltime="3.04" overlapTraveltime="3.37" density="2.20" laneDensity="1.10" occupancy="0.50" waitingTime="0.00" speed="15.11" departed="0" arrived="0" entered="54" left="54" laneChangedFrom="20" laneChangedTo="20"/>
        <edge id="28531510.48" sampledSeconds="428.74" traveltime="7.63" overlapTraveltime="7.94" density="1.94" laneDensity="1.94" occupancy="0.94" waitingTime="0.00" speed="16.13" departed="0" arrived="0" entered="54" left="54" laneChangedFrom="0" laneChangedTo="0"/>
        <edge id="29038677" sampledSeconds="769.33" traveltime="15.92" overlapTraveltime="16.23" density="1.66" laneDensity="1.66" occupancy="0.81" waitingTime="0.00" speed="16.19" departed="0" arrived="0" entered="48" left="47" laneChangedFrom="0" laneChangedTo="0"/>
        <edge id="29332864" sampledSeconds="2106.23" traveltime="22.09" overlapTraveltime="22.41" density="3.24" laneDensity="3.24" occupancy="1.62" waitingTime="0.00" speed="16.34" departed="0" arrived="0" entered="94" left="94" laneChangedFrom="0" laneChangedTo="0"/>
        <edge id="293596618#1-AddedOffRampEdge" sampledSeconds="2187.22" traveltime="22.43" overlapTraveltime="22.66" density="2.50" laneDensity="0.62" occupancy="0.31" waitingTime="0.00" speed="21.68" departed="194" arrived="0" entered="0" left="194" laneChangedFrom="26" laneChangedTo="26"/>
        <edge id="30414032" sampledSeconds="4698.92" traveltime="18.62" overlapTraveltime="18.93" density="8.72" laneDensity="8.72" occupancy="4.29" waitingTime="0.00" speed="16.08" departed="0" arrived="0" entered="249" left="247" laneChangedFrom="0" laneChangedTo="0"/>
        <edge id="319144060" sampledSeconds="3082.73" traveltime="16.62" overlapTraveltime="16.93" density="6.33" laneDensity="2.11" occupancy="1.04" waitingTime="0.00" speed="16.28" departed="333" arrived="0" entered="0" left="333" laneChangedFrom="23" laneChangedTo="23"/>
        <edge id="328393125" sampledSeconds="3015.18" traveltime="11.34" overlapTraveltime="11.52" density="5.43" laneDensity="1.36" occupancy="0.67" waitingTime="0.00" speed="27.19" departed="0" arrived="0" entered="263" left="260" laneChangedFrom="67" laneChangedTo="67"/>
        <edge id="328393125-AddedOnRampEdge" sampledSeconds="1194.37" traveltime="4.35" overlapTraveltime="4.54" density="6.57" laneDensity="1.31" occupancy="0.63" waitingTime="0.00" speed="23.33" departed="0" arrived="0" entered="263" left="263" laneChangedFrom="38" laneChangedTo="38"/>
        <edge id="332655578" sampledSeconds="3541.44" traveltime="39.24" overlapTraveltime="39.79" density="6.02" laneDensity="3.01" occupancy="1.48" waitingTime="0.00" speed="8.33" departed="0" arrived="0" entered="89" left="89" laneChangedFrom="105" laneChangedTo="105"/>
        <edge id="332655581" sampledSeconds="831.04" traveltime="7.35" overlapTraveltime="7.62" density="3.93" laneDensity="3.93" occupancy="1.86" waitingTime="0.00" speed="16.07" departed="0" arrived="0" entered="110" left="109" laneChangedFrom="0" laneChangedTo="0"/>
        <edge id="345616204#1" sampledSeconds="4340.31" traveltime="12.10" overlapTraveltime="12.28" density="7.30" laneDensity="1.83" occupancy="0.90" waitingTime="0.00" speed="27.30" departed="0" arrived="0" entered="354" left="352" laneChangedFrom="60" laneChangedTo="60"/>
        <edge id="345616204#1-AddedOnRampEdge" sampledSeconds="1370.34" traveltime="3.68" overlapTraveltime="3.87" density="8.27" laneDensity="1.65" occupancy="0.79" waitingTime="0.00" speed="25.07" departed="0" arrived="0" entered="354" left="354" laneChangedFrom="127" laneChangedTo="127"/>
        <edge id="345616204#1.334" sampledSeconds="4172.11" traveltime="11.71" overlapTraveltime="11.89" density="7.20" laneDensity="1.80" occupancy="0.89" waitingTime="0.00" speed="27.48" departed="0" arrived="0" entered="352" left="350" laneChangedFrom="26" laneChangedTo="26"/>
        <edge id="345616204#1.655" sampledSeconds="4871.60" traveltime="13.81" overlapTraveltime="13.99" density="7.13" laneDensity="1.78" occupancy="0.89" waitingTime="0.00" speed="27.49" departed="0" arrived="349" entered="350" left="0" laneChangedFrom="10" laneChangedTo="10"/>
        <edge id="360361373" sampledSeconds="5035.08" traveltime="17.26" overlapTraveltime="17.45" density="6.09" laneDensity="1.52" occupancy="0.76" waitingTime="0.00" speed="26.60" departed="0" arrived="0" entered="290" left="288" laneChangedFrom="79" laneChangedTo="79"/>
        <edge id="360361373-AddedOffRampEdge" sampledSeconds="1021.54" traveltime="3.50" overlapTraveltime="3.69" density="6.09" laneDensity="1.22" occupancy="0.58" waitingTime="0.00" speed="26.64" departed="0" arrived="0" entered="277" left="277" laneChangedFrom="57" laneChangedTo="57"/>
        <edge id="360361373-AddedOnRampEdge" sampledSeconds="1148.36" traveltime="3.76" overlapTraveltime="3.96" density="6.93" laneDensity="1.39" occupancy="0.66" waitingTime="0.00" speed="24.53" departed="0" arrived="0" entered="291" left="290" laneChangedFrom="107" laneChangedTo="107"/>
        <edge id="360361373.1498" sampledSeconds="4267.08" traveltime="14.95" overlapTraveltime="15.13" density="5.91" laneDensity="1.48" occupancy="0.73" waitingTime="0.00" speed="26.84" departed="0" arrived="0" entered="283" left="281" laneChangedFrom="38" laneChangedTo="38"/>
        <edge id="360361373.1899" sampledSeconds="3339.53" traveltime="11.74" overlapTraveltime="11.93" density="5.89" laneDensity="1.47" occupancy="0.73" waitingTime="0.00" speed="26.83" departed="0" arrived="0" entered="281" left="278" laneChangedFrom="43" laneChangedTo="43"/>
        <edge id="360361373.2215" sampledSeconds="4473.10" traveltime="15.95" overlapTraveltime="16.13" density="5.81" laneDensity="1.45" occupancy="0.72" waitingTime="0.00" speed="26.81" departed="0" arrived="0" entered="278" left="277" laneChangedFrom="39" laneChangedTo="39"/>
        <edge id="360361373.2643" sampledSeconds="4293.38" traveltime="15.32" overlapTraveltime="15.50" density="5.80" laneDensity="1.45" occupancy="0.72" waitingTime="0.00" speed="26.84" departed="0" arrived="0" entered="277" left="277" laneChangedFrom="44" laneChangedTo="44"/>
        <edge id="360361373.463" sampledSeconds="5625.42" traveltime="19.38" overlapTraveltime="19.57" density="6.03" laneDensity="1.51" occupancy="0.75" waitingTime="0.00" speed="26.76" departed="0" arrived="0" entered="288" left="286" laneChangedFrom="102" laneChangedTo="102"/>
        <edge id="360361373.981" sampledSeconds="5526.95" traveltime="19.28" overlapTraveltime="19.47" density="5.95" laneDensity="1.49" occupancy="0.74" waitingTime="0.00" speed="26.76" departed="0" arrived="0" entered="286" left="283" laneChangedFrom="61" laneChangedTo="61"/>
        <edge id="4074534" sampledSeconds="321.19" traveltime="4.79" overlapTraveltime="5.11" density="2.31" laneDensity="1.16" occupancy="0.54" waitingTime="0.00" speed="16.07" departed="0" arrived="0" entered="64" left="62" laneChangedFrom="12" laneChangedTo="12"/>
        <edge id="41517592" sampledSeconds="846.54" traveltime="9.32" overlapTraveltime="9.51" density="2.66" laneDensity="1.33" occupancy="0.64" waitingTime="0.00" speed="19.13" departed="0" arrived="0" entered="89" left="89" laneChangedFrom="75" laneChangedTo="75"/>
        <edge id="428960734" sampledSeconds="6725.35" traveltime="21.84" overlapTraveltime="22.07" density="7.86" laneDensity="1.96" occupancy="0.98" waitingTime="0.00" speed="21.77" departed="0" arrived="304" entered="307" left="0" laneChangedFrom="38" laneChangedTo="38"/>
        <edge id="428960735" sampledSeconds="931.38" traveltime="2.80" overlapTraveltime="3.03" density="8.60" laneDensity="2.15" occupancy="1.00" waitingTime="0.00" speed="21.48" departed="0" arrived="0" entered="307" left="307" laneChangedFrom="16" laneChangedTo="16"/>
        <edge id="429432523" sampledSeconds="2179.63" traveltime="6.78" overlapTraveltime="7.08" density="10.93" laneDensity="2.73" occupancy="1.31" waitingTime="0.00" speed="16.36" departed="0" arrived="0" entered="308" left="308" laneChangedFrom="54" laneChangedTo="54"/>
        <edge id="429432524" sampledSeconds="1985.60" traveltime="8.69" overlapTraveltime="8.99" density="5.80" laneDensity="1.93" occupancy="0.94" waitingTime="0.00" speed="21.72" departed="0" arrived="0" entered="222" left="219" laneChangedFrom="44" laneChangedTo="44"/>
        <edge id="429432526" sampledSeconds="4782.04" traveltime="28.04" overlapTraveltime="28.35" density="5.77" laneDensity="2.88" occupancy="1.43" waitingTime="0.00" speed="16.42" departed="0" arrived="0" entered="170" left="166" laneChangedFrom="34" laneChangedTo="34"/>
        <edge id="429432925" sampledSeconds="144.65" traveltime="0.16" overlapTraveltime="0.47" density="30.44" laneDensity="7.61" occupancy="1.32" waitingTime="0.00" speed="16.31" departed="0" arrived="0" entered="309" left="309" laneChangedFrom="5" laneChangedTo="5"/>
        <edge id="431199180" sampledSeconds="596.47" traveltime="3.15" overlapTraveltime="3.39" density="5.43" laneDensity="1.36" occupancy="0.63" waitingTime="0.00" speed="19.47" departed="0" arrived="0" entered="176" left="176" laneChangedFrom="5" laneChangedTo="5"/>
        <edge id="4402237" sampledSeconds="293.93" traveltime="4.28" overlapTraveltime="4.59" density="2.38" laneDensity="0.79" occupancy="0.37" waitingTime="0.00" speed="16.04" departed="0" arrived="0" entered="64" left="64" laneChangedFrom="5" laneChangedTo="5"/>
        <edge id="4402297" sampledSeconds="2734.37" traveltime="13.03" overlapTraveltime="13.21" density="4.23" laneDensity="1.41" occupancy="0.70" waitingTime="0.00" speed="27.54" departed="0" arrived="0" entered="209" left="206" laneChangedFrom="32" laneChangedTo="32"/>
        <edge id="4404096" sampledSeconds="952.87" traveltime="13.31" overlapTraveltime="13.61" density="2.42" laneDensity="0.81" occupancy="0.40" waitingTime="0.00" speed="16.46" departed="0" arrived="0" entered="70" left="70" laneChangedFrom="41" laneChangedTo="41"/>
        <edge id="4414080#0" sampledSeconds="2882.22" traveltime="10.17" overlapTraveltime="10.41" density="6.42" laneDensity="1.28" occupancy="0.63" waitingTime="0.00" speed="24.47" departed="0" arrived="0" entered="277" left="277" laneChangedFrom="41" laneChangedTo="41"/>
        <edge id="4414080#0.187" sampledSeconds="2501.66" traveltime="17.31" overlapTraveltime="17.49" density="2.96" laneDensity="0.99" occupancy="0.49" waitingTime="0.00" speed="27.12" departed="0" arrived="0" entered="143" left="143" laneChangedFrom="27" laneChangedTo="27"/>
        <edge id="4414080#0.756" sampledSeconds="586.01" traveltime="2.12" overlapTraveltime="2.33" density="6.80" laneDensity="1.70" occupancy="0.77" waitingTime="0.00" speed="22.74" departed="0" arrived="0" entered="252" left="252" laneChangedFrom="123" laneChangedTo="123"/>
        <edge id="4414080#0.756.47" sampledSeconds="572.11" traveltime="2.09" overlapTraveltime="2.28" density="5.99" laneDensity="2.00" occupancy="0.91" waitingTime="0.00" speed="25.47" departed="0" arrived="0" entered="252" left="250" laneChangedFrom="6" laneChangedTo="6"/>
        <edge id="4414080#1-AddedOnRampEdge" sampledSeconds="4302.29" traveltime="12.92" overlapTraveltime="13.10" density="6.97" laneDensity="1.74" occupancy="0.86" waitingTime="0.00" speed="26.57" departed="0" arrived="0" entered="331" left="327" laneChangedFrom="157" laneChangedTo="157"/>
        <edge id="4414080#1-AddedOnRampEdge.343" sampledSeconds="4020.90" traveltime="12.18" overlapTraveltime="12.36" density="6.73" laneDensity="1.68" occupancy="0.83" waitingTime="0.00" speed="27.24" departed="0" arrived="0" entered="327" left="325" laneChangedFrom="96" laneChangedTo="96"/>
        <edge id="4414080#1-AddedOnRampEdge.675" sampledSeconds="2859.88" traveltime="8.64" overlapTraveltime="8.82" density="6.75" laneDensity="1.69" occupancy="0.83" waitingTime="0.00" speed="27.26" departed="0" arrived="0" entered="325" left="324" laneChangedFrom="49" laneChangedTo="49"/>
        <edge id="457424511#3" sampledSeconds="3598.52" traveltime="25.05" overlapTraveltime="25.36" density="4.82" laneDensity="1.61" occupancy="0.80" waitingTime="0.00" speed="16.55" departed="274" arrived="0" entered="0" left="273" laneChangedFrom="119" laneChangedTo="119"/>
        <edge id="457424511#3.414" sampledSeconds="6236.97" traveltime="22.65" overlapTraveltime="23.00" density="9.45" laneDensity="3.15" occupancy="1.57" waitingTime="0.00" speed="16.16" departed="0" arrived="0" entered="273" left="270" laneChangedFrom="142" laneChangedTo="142"/>
        <edge id="48290550" sampledSeconds="11560.53" traveltime="27.17" overlapTraveltime="27.36" density="8.66" laneDensity="2.17" occupancy="1.08" waitingTime="0.00" speed="27.29" departed="0" arrived="0" entered="423" left="422" laneChangedFrom="190" laneChangedTo="190"/>
        <edge id="48290550-AddedOffRampEdge" sampledSeconds="2089.14" traveltime="4.92" overlapTraveltime="5.19" density="10.55" laneDensity="1.76" occupancy="0.84" waitingTime="0.00" speed="22.18" departed="0" arrived="0" entered="403" left="403" laneChangedFrom="178" laneChangedTo="178"/>
        <edge id="48290550.1176" sampledSeconds="4754.07" traveltime="11.13" overlapTraveltime="11.32" density="8.68" laneDensity="2.17" occupancy="1.07" waitingTime="0.00" speed="27.33" departed="0" arrived="0" entered="421" left="418" laneChangedFrom="45" laneChangedTo="45"/>
        <edge id="48290550.1480" sampledSeconds="6158.11" traveltime="14.58" overlapTraveltime="14.76" density="8.59" laneDensity="2.15" occupancy="1.06" waitingTime="0.00" speed="27.32" departed="0" arrived="0" entered="418" left="416" laneChangedFrom="82" laneChangedTo="82"/>
        <edge id="48290550.1878" sampledSeconds="7852.13" traveltime="18.81" overlapTraveltime="19.00" density="8.49" laneDensity="2.12" occupancy="1.06" waitingTime="0.00" speed="27.32" departed="0" arrived="0" entered="416" left="412" laneChangedFrom="90" laneChangedTo="90"/>
        <edge id="48290550.2391" sampledSeconds="7792.08" traveltime="18.78" overlapTraveltime="18.97" density="8.44" laneDensity="2.11" occupancy="1.05" waitingTime="0.00" speed="27.29" departed="0" arrived="0" entered="412" left="408" laneChangedFrom="75" laneChangedTo="75"/>
        <edge id="48290550.2904" sampledSeconds="5236.93" traveltime="12.72" overlapTraveltime="12.91" density="8.44" laneDensity="2.11" occupancy="1.04" waitingTime="0.00" speed="27.09" departed="0" arrived="0" entered="408" left="403" laneChangedFrom="119" laneChangedTo="119"/>
        <edge id="48290550.3266" sampledSeconds="1436.96" traveltime="3.37" overlapTraveltime="3.57" density="8.97" laneDensity="1.79" occupancy="0.85" waitingTime="0.00" speed="26.35" departed="0" arrived="0" entered="403" left="403" laneChangedFrom="74" laneChangedTo="74"/>
        <edge id="48290550.745" sampledSeconds="6732.82" traveltime="15.79" overlapTraveltime="15.97" density="8.68" laneDensity="2.17" occupancy="1.08" waitingTime="0.00" speed="27.30" departed="0" arrived="0" entered="422" left="421" laneChangedFrom="96" laneChangedTo="96"/>
        <edge id="48290551#0" sampledSeconds="1598.92" traveltime="19.26" overlapTraveltime="19.57" density="2.85" laneDensity="1.43" occupancy="0.70" waitingTime="0.00" speed="16.16" departed="0" arrived="0" entered="82" left="81" laneChangedFrom="73" laneChangedTo="73"/>
        <edge id="48290551#1" sampledSeconds="1804.38" traveltime="7.63" overlapTraveltime="7.94" density="8.09" laneDensity="2.70" occupancy="1.31" waitingTime="0.00" speed="16.24" departed="0" arrived="0" entered="228" left="227" laneChangedFrom="86" laneChangedTo="86"/>
        <edge id="48290552" sampledSeconds="1199.73" traveltime="9.82" overlapTraveltime="10.43" density="4.96" laneDensity="4.96" occupancy="2.37" waitingTime="0.00" speed="13.36" departed="0" arrived="0" entered="115" left="115" laneChangedFrom="0" laneChangedTo="0"/>
        <edge id="48516115" sampledSeconds="2153.02" traveltime="10.55" overlapTraveltime="10.78" density="5.18" laneDensity="1.04" occupancy="0.51" waitingTime="0.00" speed="21.87" departed="0" arrived="0" entered="200" left="199" laneChangedFrom="13" laneChangedTo="13"/>
        <edge id="48516117" sampledSeconds="1892.86" traveltime="17.65" overlapTraveltime="17.88" density="2.70" laneDensity="0.68" occupancy="0.33" waitingTime="0.00" speed="22.06" departed="201" arrived="0" entered="0" left="201" laneChangedFrom="46" laneChangedTo="46"/>
        <edge id="48516117.389" sampledSeconds="4879.95" traveltime="24.11" overlapTraveltime="24.34" density="5.13" laneDensity="1.28" occupancy="0.64" waitingTime="0.00" speed="21.92" departed="0" arrived="0" entered="201" left="200" laneChangedFrom="173" laneChangedTo="173"/>
        <edge id="489961226" sampledSeconds="587.94" traveltime="4.71" overlapTraveltime="5.03" density="4.34" laneDensity="2.17" occupancy="1.02" waitingTime="0.00" speed="15.97" departed="0" arrived="0" entered="117" left="117" laneChangedFrom="3" laneChangedTo="3"/>
        <edge id="491989399#0" sampledSeconds="1075.62" traveltime="4.57" overlapTraveltime="4.81" density="6.64" laneDensity="2.21" occupancy="1.06" waitingTime="0.00" speed="19.77" departed="0" arrived="0" entered="224" left="223" laneChangedFrom="21" laneChangedTo="21"/>